<VTKFile type="UnstructuredGrid" version="0.1">
  <UnstructuredGrid>
  <Piece NumberOfPoints="1000" NumberOfCells="0">
    <PointData Scalars="Radius">
      <DataArray type="Float64" Name="Radius" format="ascii">
        1
        1
        1
        1
        1
        1
        1
        1
        1
        1
        1
        1
        1
        1
        1
        1
        1
        1
        1
        1
        1
        1
        1
        1
        1
        1
        1
        1
        1
        1
        1
        1
        1
        1
        1
        1
        1
        1
        1
        1
        1
        1
        1
        1
        1
        1
        1
        1
        1
        1
        1
        1
        1
        1
        1
        1
        1
        1
        1
        1
        1
        1
        1
        1
        1
        1
        1
        1
        1
        1
        1
        1
        1
        1
        1
        1
        1
        1
        1
        1
        1
        1
        1
        1
        1
        1
        1
        1
        1
        1
        1
        1
        1
        1
        1
        1
        1
        1
        1
        1
        1
        1
        1
        1
        1
        1
        1
        1
        1
        1
        1
        1
        1
        1
        1
        1
        1
        1
        1
        1
        1
        1
        1
        1
        1
        1
        1
        1
        1
        1
        1
        1
        1
        1
        1
        1
        1
        1
        1
        1
        1
        1
        1
        1
        1
        1
        1
        1
        1
        1
        1
        1
        1
        1
        1
        1
        1
        1
        1
        1
        1
        1
        1
        1
        1
        1
        1
        1
        1
        1
        1
        1
        1
        1
        1
        1
        1
        1
        1
        1
        1
        1
        1
        1
        1
        1
        1
        1
        1
        1
        1
        1
        1
        1
        1
        1
        1
        1
        1
        1
        1
        1
        1
        1
        1
        1
        1
        1
        1
        1
        1
        1
        1
        1
        1
        1
        1
        1
        1
        1
        1
        1
        1
        1
        1
        1
        1
        1
        1
        1
        1
        1
        1
        1
        1
        1
        1
        1
        1
        1
        1
        1
        1
        1
        1
        1
        1
        1
        1
        1
        1
        1
        1
        1
        1
        1
        1
        1
        1
        1
        1
        1
        1
        1
        1
        1
        1
        1
        1
        1
        1
        1
        1
        1
        1
        1
        1
        1
        1
        1
        1
        1
        1
        1
        1
        1
        1
        1
        1
        1
        1
        1
        1
        1
        1
        1
        1
        1
        1
        1
        1
        1
        1
        1
        1
        1
        1
        1
        1
        1
        1
        1
        1
        1
        1
        1
        1
        1
        1
        1
        1
        1
        1
        1
        1
        1
        1
        1
        1
        1
        1
        1
        1
        1
        1
        1
        1
        1
        1
        1
        1
        1
        1
        1
        1
        1
        1
        1
        1
        1
        1
        1
        1
        1
        1
        1
        1
        1
        1
        1
        1
        1
        1
        1
        1
        1
        1
        1
        1
        1
        1
        1
        1
        1
        1
        1
        1
        1
        1
        1
        1
        1
        1
        1
        1
        1
        1
        1
        1
        1
        1
        1
        1
        1
        1
        1
        1
        1
        1
        1
        1
        1
        1
        1
        1
        1
        1
        1
        1
        1
        1
        1
        1
        1
        1
        1
        1
        1
        1
        1
        1
        1
        1
        1
        1
        1
        1
        1
        1
        1
        1
        1
        1
        1
        1
        1
        1
        1
        1
        1
        1
        1
        1
        1
        1
        1
        1
        1
        1
        1
        1
        1
        1
        1
        1
        1
        1
        1
        1
        1
        1
        1
        1
        1
        1
        1
        1
        1
        1
        1
        1
        1
        1
        1
        1
        1
        1
        1
        1
        1
        1
        1
        1
        1
        1
        1
        1
        1
        1
        1
        1
        1
        1
        1
        1
        1
        1
        1
        1
        1
        1
        1
        1
        1
        1
        1
        1
        1
        1
        1
        1
        1
        1
        1
        1
        1
        1
        1
        1
        1
        1
        1
        1
        1
        1
        1
        1
        1
        1
        1
        1
        1
        1
        1
        1
        1
        1
        1
        1
        1
        1
        1
        1
        1
        1
        1
        1
        1
        1
        1
        1
        1
        1
        1
        1
        1
        1
        1
        1
        1
        1
        1
        1
        1
        1
        1
        1
        1
        1
        1
        1
        1
        1
        1
        1
        1
        1
        1
        1
        1
        1
        1
        1
        1
        1
        1
        1
        1
        1
        1
        1
        1
        1
        1
        1
        1
        1
        1
        1
        1
        1
        1
        1
        1
        1
        1
        1
        1
        1
        1
        1
        1
        1
        1
        1
        1
        1
        1
        1
        1
        1
        1
        1
        1
        1
        1
        1
        1
        1
        1
        1
        1
        1
        1
        1
        1
        1
        1
        1
        1
        1
        1
        1
        1
        1
        1
        1
        1
        1
        1
        1
        1
        1
        1
        1
        1
        1
        1
        1
        1
        1
        1
        1
        1
        1
        1
        1
        1
        1
        1
        1
        1
        1
        1
        1
        1
        1
        1
        1
        1
        1
        1
        1
        1
        1
        1
        1
        1
        1
        1
        1
        1
        1
        1
        1
        1
        1
        1
        1
        1
        1
        1
        1
        1
        1
        1
        1
        1
        1
        1
        1
        1
        1
        1
        1
        1
        1
        1
        1
        1
        1
        1
        1
        1
        1
        1
        1
        1
        1
        1
        1
        1
        1
        1
        1
        1
        1
        1
        1
        1
        1
        1
        1
        1
        1
        1
        1
        1
        1
        1
        1
        1
        1
        1
        1
        1
        1
        1
        1
        1
        1
        1
        1
        1
        1
        1
        1
        1
        1
        1
        1
        1
        1
        1
        1
        1
        1
        1
        1
        1
        1
        1
        1
        1
        1
        1
        1
        1
        1
        1
        1
        1
        1
        1
        1
        1
        1
        1
        1
        1
        1
        1
        1
        1
        1
        1
        1
        1
        1
        1
        1
        1
        1
        1
        1
        1
        1
        1
        1
        1
        1
        1
        1
        1
        1
        1
        1
        1
        1
        1
        1
        1
        1
        1
        1
        1
        1
        1
        1
        1
        1
        1
        1
        1
        1
        1
        1
        1
        1
        1
        1
        1
        1
        1
        1
        1
        1
        1
        1
        1
        1
        1
        1
        1
        1
        1
        1
        1
        1
        1
        1
        1
        1
        1
        1
        1
        1
        1
        1
        1
        1
        1
        1
        1
        1
        1
        1
        1
        1
        1
        1
        1
        1
        1
        1
        1
        1
        1
        1
        1
        1
        1
        1
        1
        1
        1
        1
        1
        1
        1
        1
        1
        1
        1
        1
        1
        1
        1
        1
        1
        1
        1
        1
        1
        1
        1
        1
        1
        1
        1
        1
        1
        1
        1
        1
        1
        1
        1
        1
        1
        1
        1
        1
        1
        1
        1
        1
        1
        1
        1
        1
        1
        1
        1
        1
        1
        1
        1
        1
        1
        1
        1
        1
        1
        1
        1
        1
        1
        1
        1
        1
        1
        1
        1
        1
        1
        1
        1
        1
        1
        1
        1
        1
        1
        1
        1
        1
        1
        1
        1
        1
        1
        1
        1
        1
        1
        1
        1
        1
        1
      </DataArray>
    </PointData>
    <Points>
      <DataArray type="Float64" NumberOfComponents="3" format="ascii">
        21 21 21
        3 3.9819e-307 3.9819e-307
        6 3.73925e-307 3.73925e-307
        9 3.71584e-307 3.71584e-307
        12 3.72625e-307 3.72625e-307
        15 3.71475e-307 3.71475e-307
        18 3.72616e-307 3.72616e-307
        21 3.72616e-307 3.72616e-307
        24 3.71475e-307 3.71475e-307
        27 3.4341e-307 3.4341e-307
        4.26783e-307 3 3.9819e-307
        3 3 5.00007e-307
        6 3 4.11041e-307
        9 3 4.04419e-307
        12 3 4.05592e-307
        15 3 4.04086e-307
        18 3 4.05565e-307
        21 3 4.05565e-307
        24 3 4.04086e-307
        27 3 3.71135e-307
        4.01262e-307 6 3.73925e-307
        3 6 4.11041e-307
        6 6 4.09772e-307
        9 6 4.06153e-307
        12 6 4.07381e-307
        15 6 4.05778e-307
        18 6 4.07335e-307
        21 6 4.07335e-307
        24 6 4.05778e-307
        27 6 3.72402e-307
        3.98772e-307 9 3.71584e-307
        3 9 4.04419e-307
        6 9 4.06153e-307
        9 9 4.04445e-307
        12 9 4.05815e-307
        15 9 4.04285e-307
        18 9 4.05778e-307
        21 9 4.05778e-307
        24 9 4.04285e-307
        27 9 3.71276e-307
        3.9989e-307 12 3.72625e-307
        3 12 4.05592e-307
        6 12 4.07381e-307
        9 12 4.05815e-307
        12 12 4.07351e-307
        15 12 4.05778e-307
        18 12 4.07335e-307
        21 12 4.07335e-307
        24 12 4.05778e-307
        27 12 3.72402e-307
        3.98656e-307 15 3.71475e-307
        3 15 4.04086e-307
        6 15 4.05778e-307
        9 15 4.04285e-307
        12 15 4.05778e-307
        15 15 4.04285e-307
        18 15 4.05778e-307
        21 15 4.05778e-307
        24 15 4.04285e-307
        27 15 3.71276e-307
        3.9988e-307 18 3.72616e-307
        3 18 4.05565e-307
        6 18 4.07335e-307
        9 18 4.05778e-307
        12 18 4.07335e-307
        15 18 4.05778e-307
        18 18 4.07335e-307
        21 18 4.07335e-307
        24 18 4.05778e-307
        27 18 3.72402e-307
        3.9988e-307 21 3.72616e-307
        3 21 4.05565e-307
        6 21 4.07335e-307
        9 21 4.05778e-307
        12 21 4.07335e-307
        15 21 4.05778e-307
        18 21 4.07335e-307
        21 21 4.07335e-307
        24 21 4.05778e-307
        27 21 3.72402e-307
        3.98656e-307 24 3.71475e-307
        3 24 4.04086e-307
        6 24 4.05778e-307
        9 24 4.04285e-307
        12 24 4.05778e-307
        15 24 4.04285e-307
        18 24 4.05778e-307
        21 24 4.05778e-307
        24 24 4.04285e-307
        27 24 3.71276e-307
        3.68538e-307 27 3.4341e-307
        3 27 3.71135e-307
        6 27 3.72402e-307
        9 27 3.71276e-307
        12 27 3.72402e-307
        15 27 3.71276e-307
        18 27 3.72402e-307
        21 27 3.72402e-307
        24 27 3.71276e-307
        27 27 3.43269e-307
        4.26783e-307 3.9819e-307 3
        3 5.00007e-307 3
        6 4.11041e-307 3
        9 4.04419e-307 3
        12 4.05592e-307 3
        15 4.04086e-307 3
        18 4.05565e-307 3
        21 4.05565e-307 3
        24 4.04086e-307 3
        27 3.71135e-307 3
        5.34735e-307 3 3
        3 3 3
        6 3 3
        9 3 3
        12 3 3
        15 3 3
        18 3 3
        21 3 3
        24 3 3
        27 3 3
        4.41027e-307 6 3
        3 6 3
        6 6 3
        9 6 3
        12 6 3
        15 6 3
        18 6 3
        21 6 3
        24 6 3
        27 6 3
        4.34006e-307 9 3
        3 9 3
        6 9 3
        9 9 3
        12 9 3
        15 9 3
        18 9 3
        21 9 3
        24 9 3
        27 9 3
        4.3527e-307 12 3
        3 12 3
        6 12 3
        9 12 3
        12 12 3
        15 12 3
        18 12 3
        21 12 3
        24 12 3
        27 12 3
        4.33653e-307 15 3
        3 15 3
        6 15 3
        9 15 3
        12 15 3
        15 15 3
        18 15 3
        21 15 3
        24 15 3
        27 15 3
        4.3524e-307 18 3
        3 18 3
        6 18 3
        9 18 3
        12 18 3
        15 18 3
        18 18 3
        21 18 3
        24 18 3
        27 18 3
        4.3524e-307 21 3
        3 21 3
        6 21 3
        9 21 3
        12 21 3
        15 21 3
        18 21 3
        21 21 3
        24 21 3
        27 21 3
        4.33653e-307 24 3
        3 24 3
        6 24 3
        9 24 3
        12 24 3
        15 24 3
        18 24 3
        21 24 3
        24 24 3
        27 24 3
        3.98291e-307 27 3
        3 27 3
        6 27 3
        9 27 3
        12 27 3
        15 27 3
        18 27 3
        21 27 3
        24 27 3
        27 27 3
        4.01262e-307 3.73925e-307 6
        3 4.11041e-307 6
        6 4.09772e-307 6
        9 4.06153e-307 6
        12 4.07381e-307 6
        15 4.05778e-307 6
        18 4.07335e-307 6
        21 4.07335e-307 6
        24 4.05778e-307 6
        27 3.72402e-307 6
        4.41027e-307 3 6
        3 3 6
        6 3 6
        9 3 6
        12 3 6
        15 3 6
        18 3 6
        21 3 6
        24 3 6
        27 3 6
        4.39723e-307 6 6
        3 6 6
        6 6 6
        9 6 6
        12 6 6
        15 6 6
        18 6 6
        21 6 6
        24 6 6
        27 6 6
        4.35868e-307 9 6
        3 9 6
        6 9 6
        9 9 6
        12 9 6
        15 9 6
        18 9 6
        21 9 6
        24 9 6
        27 9 6
        4.3719e-307 12 6
        3 12 6
        6 12 6
        9 12 6
        12 12 6
        15 12 6
        18 12 6
        21 12 6
        24 12 6
        27 12 6
        4.35469e-307 15 6
        3 15 6
        6 15 6
        9 15 6
        12 15 6
        15 15 6
        18 15 6
        21 15 6
        24 15 6
        27 15 6
        4.3714e-307 18 6
        3 18 6
        6 18 6
        9 18 6
        12 18 6
        15 18 6
        18 18 6
        21 18 6
        24 18 6
        27 18 6
        4.3714e-307 21 6
        3 21 6
        6 21 6
        9 21 6
        12 21 6
        15 21 6
        18 21 6
        21 21 6
        24 21 6
        27 21 6
        4.35469e-307 24 6
        3 24 6
        6 24 6
        9 24 6
        12 24 6
        15 24 6
        18 24 6
        21 24 6
        24 24 6
        27 24 6
        3.99651e-307 27 6
        3 27 6
        6 27 6
        9 27 6
        12 27 6
        15 27 6
        18 27 6
        21 27 6
        24 27 6
        27 27 6
        3.98772e-307 3.71584e-307 9
        3 4.04419e-307 9
        6 4.06153e-307 9
        9 4.04445e-307 9
        12 4.05815e-307 9
        15 4.04285e-307 9
        18 4.05778e-307 9
        21 4.05778e-307 9
        24 4.04285e-307 9
        27 3.71276e-307 9
        4.34006e-307 3 9
        3 3 9
        6 3 9
        9 3 9
        12 3 9
        15 3 9
        18 3 9
        21 3 9
        24 3 9
        27 3 9
        4.35868e-307 6 9
        3 6 9
        6 6 9
        9 6 9
        12 6 9
        15 6 9
        18 6 9
        21 6 9
        24 6 9
        27 6 9
        4.34037e-307 9 9
        3 9 9
        6 9 9
        9 9 9
        12 9 9
        15 9 9
        18 9 9
        21 9 9
        24 9 9
        27 9 9
        4.35509e-307 12 9
        3 12 9
        6 12 9
        9 12 9
        12 12 9
        15 12 9
        18 12 9
        21 12 9
        24 12 9
        27 12 9
        4.33867e-307 15 9
        3 15 9
        6 15 9
        9 15 9
        12 15 9
        15 15 9
        18 15 9
        21 15 9
        24 15 9
        27 15 9
        4.35469e-307 18 9
        3 18 9
        6 18 9
        9 18 9
        12 18 9
        15 18 9
        18 18 9
        21 18 9
        24 18 9
        27 18 9
        4.35469e-307 21 9
        3 21 9
        6 21 9
        9 21 9
        12 21 9
        15 21 9
        18 21 9
        21 21 9
        24 21 9
        27 21 9
        4.33867e-307 24 9
        3 24 9
        6 24 9
        9 24 9
        12 24 9
        15 24 9
        18 24 9
        21 24 9
        24 24 9
        27 24 9
        3.98443e-307 27 9
        3 27 9
        6 27 9
        9 27 9
        12 27 9
        15 27 9
        18 27 9
        21 27 9
        24 27 9
        27 27 9
        3.9989e-307 3.72625e-307 12
        3 4.05592e-307 12
        6 4.07381e-307 12
        9 4.05815e-307 12
        12 4.07351e-307 12
        15 4.05778e-307 12
        18 4.07335e-307 12
        21 4.07335e-307 12
        24 4.05778e-307 12
        27 3.72402e-307 12
        4.3527e-307 3 12
        3 3 12
        6 3 12
        9 3 12
        12 3 12
        15 3 12
        18 3 12
        21 3 12
        24 3 12
        27 3 12
        4.3719e-307 6 12
        3 6 12
        6 6 12
        9 6 12
        12 6 12
        15 6 12
        18 6 12
        21 6 12
        24 6 12
        27 6 12
        4.35509e-307 9 12
        3 9 12
        6 9 12
        9 9 12
        12 9 12
        15 9 12
        18 9 12
        21 9 12
        24 9 12
        27 9 12
        4.37157e-307 12 12
        3 12 12
        6 12 12
        9 12 12
        12 12 12
        15 12 12
        18 12 12
        21 12 12
        24 12 12
        27 12 12
        4.35469e-307 15 12
        3 15 12
        6 15 12
        9 15 12
        12 15 12
        15 15 12
        18 15 12
        21 15 12
        24 15 12
        27 15 12
        4.3714e-307 18 12
        3 18 12
        6 18 12
        9 18 12
        12 18 12
        15 18 12
        18 18 12
        21 18 12
        24 18 12
        27 18 12
        4.3714e-307 21 12
        3 21 12
        6 21 12
        9 21 12
        12 21 12
        15 21 12
        18 21 12
        21 21 12
        24 21 12
        27 21 12
        4.35469e-307 24 12
        3 24 12
        6 24 12
        9 24 12
        12 24 12
        15 24 12
        18 24 12
        21 24 12
        24 24 12
        27 24 12
        3.99651e-307 27 12
        3 27 12
        6 27 12
        9 27 12
        12 27 12
        15 27 12
        18 27 12
        21 27 12
        24 27 12
        27 27 12
        3.98656e-307 3.71475e-307 15
        3 4.04086e-307 15
        6 4.05778e-307 15
        9 4.04285e-307 15
        12 4.05778e-307 15
        15 4.04285e-307 15
        18 4.05778e-307 15
        21 4.05778e-307 15
        24 4.04285e-307 15
        27 3.71276e-307 15
        4.33653e-307 3 15
        3 3 15
        6 3 15
        9 3 15
        12 3 15
        15 3 15
        18 3 15
        21 3 15
        24 3 15
        27 3 15
        4.35469e-307 6 15
        3 6 15
        6 6 15
        9 6 15
        12 6 15
        15 6 15
        18 6 15
        21 6 15
        24 6 15
        27 6 15
        4.33867e-307 9 15
        3 9 15
        6 9 15
        9 9 15
        12 9 15
        15 9 15
        18 9 15
        21 9 15
        24 9 15
        27 9 15
        4.35469e-307 12 15
        3 12 15
        6 12 15
        9 12 15
        12 12 15
        15 12 15
        18 12 15
        21 12 15
        24 12 15
        27 12 15
        4.33867e-307 15 15
        3 15 15
        6 15 15
        9 15 15
        12 15 15
        15 15 15
        18 15 15
        21 15 15
        24 15 15
        27 15 15
        4.35469e-307 18 15
        3 18 15
        6 18 15
        9 18 15
        12 18 15
        15 18 15
        18 18 15
        21 18 15
        24 18 15
        27 18 15
        4.35469e-307 21 15
        3 21 15
        6 21 15
        9 21 15
        12 21 15
        15 21 15
        18 21 15
        21 21 15
        24 21 15
        27 21 15
        4.33867e-307 24 15
        3 24 15
        6 24 15
        9 24 15
        12 24 15
        15 24 15
        18 24 15
        21 24 15
        24 24 15
        27 24 15
        3.98443e-307 27 15
        3 27 15
        6 27 15
        9 27 15
        12 27 15
        15 27 15
        18 27 15
        21 27 15
        24 27 15
        27 27 15
        3.9988e-307 3.72616e-307 18
        3 4.05565e-307 18
        6 4.07335e-307 18
        9 4.05778e-307 18
        12 4.07335e-307 18
        15 4.05778e-307 18
        18 4.07335e-307 18
        21 4.07335e-307 18
        24 4.05778e-307 18
        27 3.72402e-307 18
        4.3524e-307 3 18
        3 3 18
        6 3 18
        9 3 18
        12 3 18
        15 3 18
        18 3 18
        21 3 18
        24 3 18
        27 3 18
        4.3714e-307 6 18
        3 6 18
        6 6 18
        9 6 18
        12 6 18
        15 6 18
        18 6 18
        21 6 18
        24 6 18
        27 6 18
        4.35469e-307 9 18
        3 9 18
        6 9 18
        9 9 18
        12 9 18
        15 9 18
        18 9 18
        21 9 18
        24 9 18
        27 9 18
        4.3714e-307 12 18
        3 12 18
        6 12 18
        9 12 18
        12 12 18
        15 12 18
        18 12 18
        21 12 18
        24 12 18
        27 12 18
        4.35469e-307 15 18
        3 15 18
        6 15 18
        9 15 18
        12 15 18
        15 15 18
        18 15 18
        21 15 18
        24 15 18
        27 15 18
        4.3714e-307 18 18
        3 18 18
        6 18 18
        9 18 18
        12 18 18
        15 18 18
        18 18 18
        21 18 18
        24 18 18
        27 18 18
        4.3714e-307 21 18
        3 21 18
        6 21 18
        9 21 18
        12 21 18
        15 21 18
        18 21 18
        21 21 18
        24 21 18
        27 21 18
        4.35469e-307 24 18
        3 24 18
        6 24 18
        9 24 18
        12 24 18
        15 24 18
        18 24 18
        21 24 18
        24 24 18
        27 24 18
        3.99651e-307 27 18
        3 27 18
        6 27 18
        9 27 18
        12 27 18
        15 27 18
        18 27 18
        21 27 18
        24 27 18
        27 27 18
        3.9988e-307 3.72616e-307 21
        3 4.05565e-307 21
        6 4.07335e-307 21
        9 4.05778e-307 21
        12 4.07335e-307 21
        15 4.05778e-307 21
        18 4.07335e-307 21
        21 4.07335e-307 21
        24 4.05778e-307 21
        27 3.72402e-307 21
        4.3524e-307 3 21
        3 3 21
        6 3 21
        9 3 21
        12 3 21
        15 3 21
        18 3 21
        21 3 21
        24 3 21
        27 3 21
        4.3714e-307 6 21
        3 6 21
        6 6 21
        9 6 21
        12 6 21
        15 6 21
        18 6 21
        21 6 21
        24 6 21
        27 6 21
        4.35469e-307 9 21
        3 9 21
        6 9 21
        9 9 21
        12 9 21
        15 9 21
        18 9 21
        21 9 21
        24 9 21
        27 9 21
        4.3714e-307 12 21
        3 12 21
        6 12 21
        9 12 21
        12 12 21
        15 12 21
        18 12 21
        21 12 21
        24 12 21
        27 12 21
        4.35469e-307 15 21
        3 15 21
        6 15 21
        9 15 21
        12 15 21
        15 15 21
        18 15 21
        21 15 21
        24 15 21
        27 15 21
        4.3714e-307 18 21
        3 18 21
        6 18 21
        9 18 21
        12 18 21
        15 18 21
        18 18 21
        21 18 21
        24 18 21
        27 18 21
        4.3714e-307 21 21
        3 21 21
        6 21 21
        9 21 21
        12 21 21
        15 21 21
        18 21 21
        21 21 21
        24 21 21
        27 21 21
        4.35469e-307 24 21
        3 24 21
        6 24 21
        9 24 21
        12 24 21
        15 24 21
        18 24 21
        21 24 21
        24 24 21
        27 24 21
        3.99651e-307 27 21
        3 27 21
        6 27 21
        9 27 21
        12 27 21
        15 27 21
        18 27 21
        21 27 21
        24 27 21
        27 27 21
        3.98656e-307 3.71475e-307 24
        3 4.04086e-307 24
        6 4.05778e-307 24
        9 4.04285e-307 24
        12 4.05778e-307 24
        15 4.04285e-307 24
        18 4.05778e-307 24
        21 4.05778e-307 24
        24 4.04285e-307 24
        27 3.71276e-307 24
        4.33653e-307 3 24
        3 3 24
        6 3 24
        9 3 24
        12 3 24
        15 3 24
        18 3 24
        21 3 24
        24 3 24
        27 3 24
        4.35469e-307 6 24
        3 6 24
        6 6 24
        9 6 24
        12 6 24
        15 6 24
        18 6 24
        21 6 24
        24 6 24
        27 6 24
        4.33867e-307 9 24
        3 9 24
        6 9 24
        9 9 24
        12 9 24
        15 9 24
        18 9 24
        21 9 24
        24 9 24
        27 9 24
        4.35469e-307 12 24
        3 12 24
        6 12 24
        9 12 24
        12 12 24
        15 12 24
        18 12 24
        21 12 24
        24 12 24
        27 12 24
        4.33867e-307 15 24
        3 15 24
        6 15 24
        9 15 24
        12 15 24
        15 15 24
        18 15 24
        21 15 24
        24 15 24
        27 15 24
        4.35469e-307 18 24
        3 18 24
        6 18 24
        9 18 24
        12 18 24
        15 18 24
        18 18 24
        21 18 24
        24 18 24
        27 18 24
        4.35469e-307 21 24
        3 21 24
        6 21 24
        9 21 24
        12 21 24
        15 21 24
        18 21 24
        21 21 24
        24 21 24
        27 21 24
        4.33867e-307 24 24
        3 24 24
        6 24 24
        9 24 24
        12 24 24
        15 24 24
        18 24 24
        21 24 24
        24 24 24
        27 24 24
        3.98443e-307 27 24
        3 27 24
        6 27 24
        9 27 24
        12 27 24
        15 27 24
        18 27 24
        21 27 24
        24 27 24
        27 27 24
        3.68538e-307 3.4341e-307 27
        3 3.71135e-307 27
        6 3.72402e-307 27
        9 3.71276e-307 27
        12 3.72402e-307 27
        15 3.71276e-307 27
        18 3.72402e-307 27
        21 3.72402e-307 27
        24 3.71276e-307 27
        27 3.43269e-307 27
        3.98291e-307 3 27
        3 3 27
        6 3 27
        9 3 27
        12 3 27
        15 3 27
        18 3 27
        21 3 27
        24 3 27
        27 3 27
        3.99651e-307 6 27
        3 6 27
        6 6 27
        9 6 27
        12 6 27
        15 6 27
        18 6 27
        21 6 27
        24 6 27
        27 6 27
        3.98443e-307 9 27
        3 9 27
        6 9 27
        9 9 27
        12 9 27
        15 9 27
        18 9 27
        21 9 27
        24 9 27
        27 9 27
        3.99651e-307 12 27
        3 12 27
        6 12 27
        9 12 27
        12 12 27
        15 12 27
        18 12 27
        21 12 27
        24 12 27
        27 12 27
        3.98443e-307 15 27
        3 15 27
        6 15 27
        9 15 27
        12 15 27
        15 15 27
        18 15 27
        21 15 27
        24 15 27
        27 15 27
        3.99651e-307 18 27
        3 18 27
        6 18 27
        9 18 27
        12 18 27
        15 18 27
        18 18 27
        21 18 27
        24 18 27
        27 18 27
        3.99651e-307 21 27
        3 21 27
        6 21 27
        9 21 27
        12 21 27
        15 21 27
        18 21 27
        21 21 27
        24 21 27
        27 21 27
        3.98443e-307 24 27
        3 24 27
        6 24 27
        9 24 27
        12 24 27
        15 24 27
        18 24 27
        21 24 27
        24 24 27
        27 24 27
        3.68386e-307 27 27
        3 27 27
        6 27 27
        9 27 27
        12 27 27
        15 27 27
        18 27 27
        21 27 27
        24 27 27
        27 27 27
      </DataArray>
    </Points>
    <Cells>
      <DataArray type="Int32" Name="connectivity" format="ascii"/>
      <DataArray type="Int32" Name="offsets" format="ascii"/>
      <DataArray type="UInt8" Name="types" format="ascii"/>
    </Cells>
  </Piece>
  </UnstructuredGrid>
</VTKFile>
