<VTKFile type="UnstructuredGrid" version="0.1">
  <UnstructuredGrid>
  <Piece NumberOfPoints="1000" NumberOfCells="0">
    <PointData Scalars="Radius">
      <DataArray type="Float64" Name="Radius" format="ascii">
        1
        1
        1
        1
        1
        1
        1
        1
        1
        1
        1
        1
        1
        1
        1
        1
        1
        1
        1
        1
        1
        1
        1
        1
        1
        1
        1
        1
        1
        1
        1
        1
        1
        1
        1
        1
        1
        1
        1
        1
        1
        1
        1
        1
        1
        1
        1
        1
        1
        1
        1
        1
        1
        1
        1
        1
        1
        1
        1
        1
        1
        1
        1
        1
        1
        1
        1
        1
        1
        1
        1
        1
        1
        1
        1
        1
        1
        1
        1
        1
        1
        1
        1
        1
        1
        1
        1
        1
        1
        1
        1
        1
        1
        1
        1
        1
        1
        1
        1
        1
        1
        1
        1
        1
        1
        1
        1
        1
        1
        1
        1
        1
        1
        1
        1
        1
        1
        1
        1
        1
        1
        1
        1
        1
        1
        1
        1
        1
        1
        1
        1
        1
        1
        1
        1
        1
        1
        1
        1
        1
        1
        1
        1
        1
        1
        1
        1
        1
        1
        1
        1
        1
        1
        1
        1
        1
        1
        1
        1
        1
        1
        1
        1
        1
        1
        1
        1
        1
        1
        1
        1
        1
        1
        1
        1
        1
        1
        1
        1
        1
        1
        1
        1
        1
        1
        1
        1
        1
        1
        1
        1
        1
        1
        1
        1
        1
        1
        1
        1
        1
        1
        1
        1
        1
        1
        1
        1
        1
        1
        1
        1
        1
        1
        1
        1
        1
        1
        1
        1
        1
        1
        1
        1
        1
        1
        1
        1
        1
        1
        1
        1
        1
        1
        1
        1
        1
        1
        1
        1
        1
        1
        1
        1
        1
        1
        1
        1
        1
        1
        1
        1
        1
        1
        1
        1
        1
        1
        1
        1
        1
        1
        1
        1
        1
        1
        1
        1
        1
        1
        1
        1
        1
        1
        1
        1
        1
        1
        1
        1
        1
        1
        1
        1
        1
        1
        1
        1
        1
        1
        1
        1
        1
        1
        1
        1
        1
        1
        1
        1
        1
        1
        1
        1
        1
        1
        1
        1
        1
        1
        1
        1
        1
        1
        1
        1
        1
        1
        1
        1
        1
        1
        1
        1
        1
        1
        1
        1
        1
        1
        1
        1
        1
        1
        1
        1
        1
        1
        1
        1
        1
        1
        1
        1
        1
        1
        1
        1
        1
        1
        1
        1
        1
        1
        1
        1
        1
        1
        1
        1
        1
        1
        1
        1
        1
        1
        1
        1
        1
        1
        1
        1
        1
        1
        1
        1
        1
        1
        1
        1
        1
        1
        1
        1
        1
        1
        1
        1
        1
        1
        1
        1
        1
        1
        1
        1
        1
        1
        1
        1
        1
        1
        1
        1
        1
        1
        1
        1
        1
        1
        1
        1
        1
        1
        1
        1
        1
        1
        1
        1
        1
        1
        1
        1
        1
        1
        1
        1
        1
        1
        1
        1
        1
        1
        1
        1
        1
        1
        1
        1
        1
        1
        1
        1
        1
        1
        1
        1
        1
        1
        1
        1
        1
        1
        1
        1
        1
        1
        1
        1
        1
        1
        1
        1
        1
        1
        1
        1
        1
        1
        1
        1
        1
        1
        1
        1
        1
        1
        1
        1
        1
        1
        1
        1
        1
        1
        1
        1
        1
        1
        1
        1
        1
        1
        1
        1
        1
        1
        1
        1
        1
        1
        1
        1
        1
        1
        1
        1
        1
        1
        1
        1
        1
        1
        1
        1
        1
        1
        1
        1
        1
        1
        1
        1
        1
        1
        1
        1
        1
        1
        1
        1
        1
        1
        1
        1
        1
        1
        1
        1
        1
        1
        1
        1
        1
        1
        1
        1
        1
        1
        1
        1
        1
        1
        1
        1
        1
        1
        1
        1
        1
        1
        1
        1
        1
        1
        1
        1
        1
        1
        1
        1
        1
        1
        1
        1
        1
        1
        1
        1
        1
        1
        1
        1
        1
        1
        1
        1
        1
        1
        1
        1
        1
        1
        1
        1
        1
        1
        1
        1
        1
        1
        1
        1
        1
        1
        1
        1
        1
        1
        1
        1
        1
        1
        1
        1
        1
        1
        1
        1
        1
        1
        1
        1
        1
        1
        1
        1
        1
        1
        1
        1
        1
        1
        1
        1
        1
        1
        1
        1
        1
        1
        1
        1
        1
        1
        1
        1
        1
        1
        1
        1
        1
        1
        1
        1
        1
        1
        1
        1
        1
        1
        1
        1
        1
        1
        1
        1
        1
        1
        1
        1
        1
        1
        1
        1
        1
        1
        1
        1
        1
        1
        1
        1
        1
        1
        1
        1
        1
        1
        1
        1
        1
        1
        1
        1
        1
        1
        1
        1
        1
        1
        1
        1
        1
        1
        1
        1
        1
        1
        1
        1
        1
        1
        1
        1
        1
        1
        1
        1
        1
        1
        1
        1
        1
        1
        1
        1
        1
        1
        1
        1
        1
        1
        1
        1
        1
        1
        1
        1
        1
        1
        1
        1
        1
        1
        1
        1
        1
        1
        1
        1
        1
        1
        1
        1
        1
        1
        1
        1
        1
        1
        1
        1
        1
        1
        1
        1
        1
        1
        1
        1
        1
        1
        1
        1
        1
        1
        1
        1
        1
        1
        1
        1
        1
        1
        1
        1
        1
        1
        1
        1
        1
        1
        1
        1
        1
        1
        1
        1
        1
        1
        1
        1
        1
        1
        1
        1
        1
        1
        1
        1
        1
        1
        1
        1
        1
        1
        1
        1
        1
        1
        1
        1
        1
        1
        1
        1
        1
        1
        1
        1
        1
        1
        1
        1
        1
        1
        1
        1
        1
        1
        1
        1
        1
        1
        1
        1
        1
        1
        1
        1
        1
        1
        1
        1
        1
        1
        1
        1
        1
        1
        1
        1
        1
        1
        1
        1
        1
        1
        1
        1
        1
        1
        1
        1
        1
        1
        1
        1
        1
        1
        1
        1
        1
        1
        1
        1
        1
        1
        1
        1
        1
        1
        1
        1
        1
        1
        1
        1
        1
        1
        1
        1
        1
        1
        1
        1
        1
        1
        1
        1
        1
        1
        1
        1
        1
        1
        1
        1
        1
        1
        1
        1
        1
        1
        1
        1
        1
        1
        1
        1
        1
        1
        1
        1
        1
        1
        1
        1
        1
        1
        1
        1
        1
        1
        1
        1
        1
        1
        1
        1
        1
        1
        1
        1
        1
        1
        1
        1
        1
        1
        1
        1
        1
        1
        1
        1
        1
        1
        1
        1
        1
        1
        1
        1
        1
        1
        1
        1
        1
        1
        1
        1
        1
        1
        1
        1
        1
        1
        1
        1
        1
        1
        1
        1
        1
        1
        1
        1
        1
      </DataArray>
    </PointData>
    <Points>
      <DataArray type="Float64" NumberOfComponents="3" format="ascii">
        10 10 10
        3 4.15555e-308 4.15555e-308
        6 3.72056e-308 3.72056e-308
        9 3.69026e-308 3.69026e-308
        12 3.70025e-308 3.70025e-308
        15 3.68887e-308 3.68887e-308
        18 3.70019e-308 3.70019e-308
        21 3.70019e-308 3.70019e-308
        24 3.68887e-308 3.68887e-308
        27 3.41017e-308 3.41017e-308
        4.79712e-308 3 4.15555e-308
        3 3 5.61206e-308
        6 3 4.10535e-308
        9 3 4.01648e-308
        12 3 4.02757e-308
        15 3 4.0127e-308
        18 3 4.02739e-308
        21 3 4.02739e-308
        24 3 4.0127e-308
        27 3 3.68549e-308
        4.30763e-308 6 3.72056e-308
        3 6 4.10535e-308
        6 6 4.07376e-308
        9 6 4.03298e-308
        12 6 4.04524e-308
        15 6 4.02951e-308
        18 6 4.04496e-308
        21 6 4.04496e-308
        24 6 4.02951e-308
        27 6 3.69807e-308
        4.27294e-308 9 3.69026e-308
        3 9 4.01648e-308
        6 9 4.03298e-308
        9 9 4.01582e-308
        12 9 4.02968e-308
        15 9 4.01468e-308
        18 9 4.02951e-308
        21 9 4.02951e-308
        24 9 4.01468e-308
        27 9 3.68689e-308
        4.28451e-308 12 3.70025e-308
        3 12 4.02757e-308
        6 12 4.04524e-308
        9 12 4.02968e-308
        12 12 4.04503e-308
        15 12 4.02951e-308
        18 12 4.04496e-308
        21 12 4.04496e-308
        24 12 4.02951e-308
        27 12 3.69807e-308
        4.27132e-308 15 3.68887e-308
        3 15 4.0127e-308
        6 15 4.02951e-308
        9 15 4.01468e-308
        12 15 4.02951e-308
        15 15 4.01468e-308
        18 15 4.02951e-308
        21 15 4.02951e-308
        24 15 4.01468e-308
        27 15 3.68689e-308
        4.28443e-308 18 3.70019e-308
        3 18 4.02739e-308
        6 18 4.04496e-308
        9 18 4.02951e-308
        12 18 4.04496e-308
        15 18 4.02951e-308
        18 18 4.04496e-308
        21 18 4.04496e-308
        24 18 4.02951e-308
        27 18 3.69807e-308
        4.28443e-308 21 3.70019e-308
        3 21 4.02739e-308
        6 21 4.04496e-308
        9 21 4.02951e-308
        12 21 4.04496e-308
        15 21 4.02951e-308
        18 21 4.04496e-308
        21 21 4.04496e-308
        24 21 4.02951e-308
        27 21 3.69807e-308
        4.27132e-308 24 3.68887e-308
        3 24 4.0127e-308
        6 24 4.02951e-308
        9 24 4.01468e-308
        12 24 4.02951e-308
        15 24 4.01468e-308
        18 24 4.02951e-308
        21 24 4.02951e-308
        24 24 4.01468e-308
        27 24 3.68689e-308
        3.94862e-308 27 3.41017e-308
        3 27 3.68549e-308
        6 27 3.69807e-308
        9 27 3.68689e-308
        12 27 3.69807e-308
        15 27 3.68689e-308
        18 27 3.69807e-308
        21 27 3.69807e-308
        24 27 3.68689e-308
        27 27 3.40877e-308
        4.79712e-308 4.15555e-308 3
        3 5.61206e-308 3
        6 4.10535e-308 3
        9 4.01648e-308 3
        12 4.02757e-308 3
        15 4.0127e-308 3
        18 4.02739e-308 3
        21 4.02739e-308 3
        24 4.0127e-308 3
        27 3.68549e-308 3
        6.45602e-308 3 3
        3 3 3
        6 3 3
        9 3 3
        12 3 3
        15 3 3
        18 3 3
        21 3 3
        24 3 3
        27 3 3
        4.75287e-308 6 3
        3 6 3
        6 6 3
        9 6 3
        12 6 3
        15 6 3
        18 6 3
        21 6 3
        24 6 3
        27 6 3
        4.65072e-308 9 3
        3 9 3
        6 9 3
        9 9 3
        12 9 3
        15 9 3
        18 9 3
        21 9 3
        24 9 3
        27 9 3
        4.66352e-308 12 3
        3 12 3
        6 12 3
        9 12 3
        12 12 3
        15 12 3
        18 12 3
        21 12 3
        24 12 3
        27 12 3
        4.64628e-308 15 3
        3 15 3
        6 15 3
        9 15 3
        12 15 3
        15 15 3
        18 15 3
        21 15 3
        24 15 3
        27 15 3
        4.66329e-308 18 3
        3 18 3
        6 18 3
        9 18 3
        12 18 3
        15 18 3
        18 18 3
        21 18 3
        24 18 3
        27 18 3
        4.66329e-308 21 3
        3 21 3
        6 21 3
        9 21 3
        12 21 3
        15 21 3
        18 21 3
        21 21 3
        24 21 3
        27 21 3
        4.64628e-308 24 3
        3 24 3
        6 24 3
        9 24 3
        12 24 3
        15 24 3
        18 24 3
        21 24 3
        24 24 3
        27 24 3
        4.2674e-308 27 3
        3 27 3
        6 27 3
        9 27 3
        12 27 3
        15 27 3
        18 27 3
        21 27 3
        24 27 3
        27 27 3
        4.30763e-308 3.72056e-308 6
        3 4.10535e-308 6
        6 4.07376e-308 6
        9 4.03298e-308 6
        12 4.04524e-308 6
        15 4.02951e-308 6
        18 4.04496e-308 6
        21 4.04496e-308 6
        24 4.02951e-308 6
        27 3.69807e-308 6
        4.75287e-308 3 6
        3 3 6
        6 3 6
        9 3 6
        12 3 6
        15 3 6
        18 3 6
        21 3 6
        24 3 6
        27 3 6
        4.71737e-308 6 6
        3 6 6
        6 6 6
        9 6 6
        12 6 6
        15 6 6
        18 6 6
        21 6 6
        24 6 6
        27 6 6
        4.66991e-308 9 6
        3 9 6
        6 9 6
        9 9 6
        12 9 6
        15 9 6
        18 9 6
        21 9 6
        24 9 6
        27 9 6
        4.68399e-308 12 6
        3 12 6
        6 12 6
        9 12 6
        12 12 6
        15 12 6
        18 12 6
        21 12 6
        24 12 6
        27 12 6
        4.66574e-308 15 6
        3 15 6
        6 15 6
        9 15 6
        12 15 6
        15 15 6
        18 15 6
        21 15 6
        24 15 6
        27 15 6
        4.68364e-308 18 6
        3 18 6
        6 18 6
        9 18 6
        12 18 6
        15 18 6
        18 18 6
        21 18 6
        24 18 6
        27 18 6
        4.68364e-308 21 6
        3 21 6
        6 21 6
        9 21 6
        12 21 6
        15 21 6
        18 21 6
        21 21 6
        24 21 6
        27 21 6
        4.66574e-308 24 6
        3 24 6
        6 24 6
        9 24 6
        12 24 6
        15 24 6
        18 24 6
        21 24 6
        24 24 6
        27 24 6
        4.28198e-308 27 6
        3 27 6
        6 27 6
        9 27 6
        12 27 6
        15 27 6
        18 27 6
        21 27 6
        24 27 6
        27 27 6
        4.27294e-308 3.69026e-308 9
        3 4.01648e-308 9
        6 4.03298e-308 9
        9 4.01582e-308 9
        12 4.02968e-308 9
        15 4.01468e-308 9
        18 4.02951e-308 9
        21 4.02951e-308 9
        24 4.01468e-308 9
        27 3.68689e-308 9
        4.65072e-308 3 9
        3 3 9
        6 3 9
        9 3 9
        12 3 9
        15 3 9
        18 3 9
        21 3 9
        24 3 9
        27 3 9
        4.66991e-308 6 9
        3 6 9
        6 6 9
        9 6 9
        12 6 9
        15 6 9
        18 6 9
        21 6 9
        24 6 9
        27 6 9
        4.64999e-308 9 9
        3 9 9
        6 9 9
        9 9 9
        12 9 9
        15 9 9
        18 9 9
        21 9 9
        24 9 9
        27 9 9
        4.66598e-308 12 9
        3 12 9
        6 12 9
        9 12 9
        12 12 9
        15 12 9
        18 12 9
        21 12 9
        24 12 9
        27 12 9
        4.64857e-308 15 9
        3 15 9
        6 15 9
        9 15 9
        12 15 9
        15 15 9
        18 15 9
        21 15 9
        24 15 9
        27 15 9
        4.66574e-308 18 9
        3 18 9
        6 18 9
        9 18 9
        12 18 9
        15 18 9
        18 18 9
        21 18 9
        24 18 9
        27 18 9
        4.66574e-308 21 9
        3 21 9
        6 21 9
        9 21 9
        12 21 9
        15 21 9
        18 21 9
        21 21 9
        24 21 9
        27 21 9
        4.64857e-308 24 9
        3 24 9
        6 24 9
        9 24 9
        12 24 9
        15 24 9
        18 24 9
        21 24 9
        24 24 9
        27 24 9
        4.26903e-308 27 9
        3 27 9
        6 27 9
        9 27 9
        12 27 9
        15 27 9
        18 27 9
        21 27 9
        24 27 9
        27 27 9
        4.28451e-308 3.70025e-308 12
        3 4.02757e-308 12
        6 4.04524e-308 12
        9 4.02968e-308 12
        12 4.04503e-308 12
        15 4.02951e-308 12
        18 4.04496e-308 12
        21 4.04496e-308 12
        24 4.02951e-308 12
        27 3.69807e-308 12
        4.66352e-308 3 12
        3 3 12
        6 3 12
        9 3 12
        12 3 12
        15 3 12
        18 3 12
        21 3 12
        24 3 12
        27 3 12
        4.68399e-308 6 12
        3 6 12
        6 6 12
        9 6 12
        12 6 12
        15 6 12
        18 6 12
        21 6 12
        24 6 12
        27 6 12
        4.66598e-308 9 12
        3 9 12
        6 9 12
        9 9 12
        12 9 12
        15 9 12
        18 9 12
        21 9 12
        24 9 12
        27 9 12
        4.68373e-308 12 12
        3 12 12
        6 12 12
        9 12 12
        12 12 12
        15 12 12
        18 12 12
        21 12 12
        24 12 12
        27 12 12
        4.66574e-308 15 12
        3 15 12
        6 15 12
        9 15 12
        12 15 12
        15 15 12
        18 15 12
        21 15 12
        24 15 12
        27 15 12
        4.68364e-308 18 12
        3 18 12
        6 18 12
        9 18 12
        12 18 12
        15 18 12
        18 18 12
        21 18 12
        24 18 12
        27 18 12
        4.68364e-308 21 12
        3 21 12
        6 21 12
        9 21 12
        12 21 12
        15 21 12
        18 21 12
        21 21 12
        24 21 12
        27 21 12
        4.66574e-308 24 12
        3 24 12
        6 24 12
        9 24 12
        12 24 12
        15 24 12
        18 24 12
        21 24 12
        24 24 12
        27 24 12
        4.28198e-308 27 12
        3 27 12
        6 27 12
        9 27 12
        12 27 12
        15 27 12
        18 27 12
        21 27 12
        24 27 12
        27 27 12
        4.27132e-308 3.68887e-308 15
        3 4.0127e-308 15
        6 4.02951e-308 15
        9 4.01468e-308 15
        12 4.02951e-308 15
        15 4.01468e-308 15
        18 4.02951e-308 15
        21 4.02951e-308 15
        24 4.01468e-308 15
        27 3.68689e-308 15
        4.64628e-308 3 15
        3 3 15
        6 3 15
        9 3 15
        12 3 15
        15 3 15
        18 3 15
        21 3 15
        24 3 15
        27 3 15
        4.66574e-308 6 15
        3 6 15
        6 6 15
        9 6 15
        12 6 15
        15 6 15
        18 6 15
        21 6 15
        24 6 15
        27 6 15
        4.64857e-308 9 15
        3 9 15
        6 9 15
        9 9 15
        12 9 15
        15 9 15
        18 9 15
        21 9 15
        24 9 15
        27 9 15
        4.66574e-308 12 15
        3 12 15
        6 12 15
        9 12 15
        12 12 15
        15 12 15
        18 12 15
        21 12 15
        24 12 15
        27 12 15
        4.64857e-308 15 15
        3 15 15
        6 15 15
        9 15 15
        12 15 15
        15 15 15
        18 15 15
        21 15 15
        24 15 15
        27 15 15
        4.66574e-308 18 15
        3 18 15
        6 18 15
        9 18 15
        12 18 15
        15 18 15
        18 18 15
        21 18 15
        24 18 15
        27 18 15
        4.66574e-308 21 15
        3 21 15
        6 21 15
        9 21 15
        12 21 15
        15 21 15
        18 21 15
        21 21 15
        24 21 15
        27 21 15
        4.64857e-308 24 15
        3 24 15
        6 24 15
        9 24 15
        12 24 15
        15 24 15
        18 24 15
        21 24 15
        24 24 15
        27 24 15
        4.26903e-308 27 15
        3 27 15
        6 27 15
        9 27 15
        12 27 15
        15 27 15
        18 27 15
        21 27 15
        24 27 15
        27 27 15
        4.28443e-308 3.70019e-308 18
        3 4.02739e-308 18
        6 4.04496e-308 18
        9 4.02951e-308 18
        12 4.04496e-308 18
        15 4.02951e-308 18
        18 4.04496e-308 18
        21 4.04496e-308 18
        24 4.02951e-308 18
        27 3.69807e-308 18
        4.66329e-308 3 18
        3 3 18
        6 3 18
        9 3 18
        12 3 18
        15 3 18
        18 3 18
        21 3 18
        24 3 18
        27 3 18
        4.68364e-308 6 18
        3 6 18
        6 6 18
        9 6 18
        12 6 18
        15 6 18
        18 6 18
        21 6 18
        24 6 18
        27 6 18
        4.66574e-308 9 18
        3 9 18
        6 9 18
        9 9 18
        12 9 18
        15 9 18
        18 9 18
        21 9 18
        24 9 18
        27 9 18
        4.68364e-308 12 18
        3 12 18
        6 12 18
        9 12 18
        12 12 18
        15 12 18
        18 12 18
        21 12 18
        24 12 18
        27 12 18
        4.66574e-308 15 18
        3 15 18
        6 15 18
        9 15 18
        12 15 18
        15 15 18
        18 15 18
        21 15 18
        24 15 18
        27 15 18
        4.68364e-308 18 18
        3 18 18
        6 18 18
        9 18 18
        12 18 18
        15 18 18
        18 18 18
        21 18 18
        24 18 18
        27 18 18
        4.68364e-308 21 18
        3 21 18
        6 21 18
        9 21 18
        12 21 18
        15 21 18
        18 21 18
        21 21 18
        24 21 18
        27 21 18
        4.66574e-308 24 18
        3 24 18
        6 24 18
        9 24 18
        12 24 18
        15 24 18
        18 24 18
        21 24 18
        24 24 18
        27 24 18
        4.28198e-308 27 18
        3 27 18
        6 27 18
        9 27 18
        12 27 18
        15 27 18
        18 27 18
        21 27 18
        24 27 18
        27 27 18
        4.28443e-308 3.70019e-308 21
        3 4.02739e-308 21
        6 4.04496e-308 21
        9 4.02951e-308 21
        12 4.04496e-308 21
        15 4.02951e-308 21
        18 4.04496e-308 21
        21 4.04496e-308 21
        24 4.02951e-308 21
        27 3.69807e-308 21
        4.66329e-308 3 21
        3 3 21
        6 3 21
        9 3 21
        12 3 21
        15 3 21
        18 3 21
        21 3 21
        24 3 21
        27 3 21
        4.68364e-308 6 21
        3 6 21
        6 6 21
        9 6 21
        12 6 21
        15 6 21
        18 6 21
        21 6 21
        24 6 21
        27 6 21
        4.66574e-308 9 21
        3 9 21
        6 9 21
        9 9 21
        12 9 21
        15 9 21
        18 9 21
        21 9 21
        24 9 21
        27 9 21
        4.68364e-308 12 21
        3 12 21
        6 12 21
        9 12 21
        12 12 21
        15 12 21
        18 12 21
        21 12 21
        24 12 21
        27 12 21
        4.66574e-308 15 21
        3 15 21
        6 15 21
        9 15 21
        12 15 21
        15 15 21
        18 15 21
        21 15 21
        24 15 21
        27 15 21
        4.68364e-308 18 21
        3 18 21
        6 18 21
        9 18 21
        12 18 21
        15 18 21
        18 18 21
        21 18 21
        24 18 21
        27 18 21
        4.68364e-308 21 21
        3 21 21
        6 21 21
        9 21 21
        12 21 21
        15 21 21
        18 21 21
        21 21 21
        24 21 21
        27 21 21
        4.66574e-308 24 21
        3 24 21
        6 24 21
        9 24 21
        12 24 21
        15 24 21
        18 24 21
        21 24 21
        24 24 21
        27 24 21
        4.28198e-308 27 21
        3 27 21
        6 27 21
        9 27 21
        12 27 21
        15 27 21
        18 27 21
        21 27 21
        24 27 21
        27 27 21
        4.27132e-308 3.68887e-308 24
        3 4.0127e-308 24
        6 4.02951e-308 24
        9 4.01468e-308 24
        12 4.02951e-308 24
        15 4.01468e-308 24
        18 4.02951e-308 24
        21 4.02951e-308 24
        24 4.01468e-308 24
        27 3.68689e-308 24
        4.64628e-308 3 24
        3 3 24
        6 3 24
        9 3 24
        12 3 24
        15 3 24
        18 3 24
        21 3 24
        24 3 24
        27 3 24
        4.66574e-308 6 24
        3 6 24
        6 6 24
        9 6 24
        12 6 24
        15 6 24
        18 6 24
        21 6 24
        24 6 24
        27 6 24
        4.64857e-308 9 24
        3 9 24
        6 9 24
        9 9 24
        12 9 24
        15 9 24
        18 9 24
        21 9 24
        24 9 24
        27 9 24
        4.66574e-308 12 24
        3 12 24
        6 12 24
        9 12 24
        12 12 24
        15 12 24
        18 12 24
        21 12 24
        24 12 24
        27 12 24
        4.64857e-308 15 24
        3 15 24
        6 15 24
        9 15 24
        12 15 24
        15 15 24
        18 15 24
        21 15 24
        24 15 24
        27 15 24
        4.66574e-308 18 24
        3 18 24
        6 18 24
        9 18 24
        12 18 24
        15 18 24
        18 18 24
        21 18 24
        24 18 24
        27 18 24
        4.66574e-308 21 24
        3 21 24
        6 21 24
        9 21 24
        12 21 24
        15 21 24
        18 21 24
        21 21 24
        24 21 24
        27 21 24
        4.64857e-308 24 24
        3 24 24
        6 24 24
        9 24 24
        12 24 24
        15 24 24
        18 24 24
        21 24 24
        24 24 24
        27 24 24
        4.26903e-308 27 24
        3 27 24
        6 27 24
        9 27 24
        12 27 24
        15 27 24
        18 27 24
        21 27 24
        24 27 24
        27 27 24
        3.94862e-308 3.41017e-308 27
        3 3.68549e-308 27
        6 3.69807e-308 27
        9 3.68689e-308 27
        12 3.69807e-308 27
        15 3.68689e-308 27
        18 3.69807e-308 27
        21 3.69807e-308 27
        24 3.68689e-308 27
        27 3.40877e-308 27
        4.2674e-308 3 27
        3 3 27
        6 3 27
        9 3 27
        12 3 27
        15 3 27
        18 3 27
        21 3 27
        24 3 27
        27 3 27
        4.28198e-308 6 27
        3 6 27
        6 6 27
        9 6 27
        12 6 27
        15 6 27
        18 6 27
        21 6 27
        24 6 27
        27 6 27
        4.26903e-308 9 27
        3 9 27
        6 9 27
        9 9 27
        12 9 27
        15 9 27
        18 9 27
        21 9 27
        24 9 27
        27 9 27
        4.28198e-308 12 27
        3 12 27
        6 12 27
        9 12 27
        12 12 27
        15 12 27
        18 12 27
        21 12 27
        24 12 27
        27 12 27
        4.26903e-308 15 27
        3 15 27
        6 15 27
        9 15 27
        12 15 27
        15 15 27
        18 15 27
        21 15 27
        24 15 27
        27 15 27
        4.28198e-308 18 27
        3 18 27
        6 18 27
        9 18 27
        12 18 27
        15 18 27
        18 18 27
        21 18 27
        24 18 27
        27 18 27
        4.28198e-308 21 27
        3 21 27
        6 21 27
        9 21 27
        12 21 27
        15 21 27
        18 21 27
        21 21 27
        24 21 27
        27 21 27
        4.26903e-308 24 27
        3 24 27
        6 24 27
        9 24 27
        12 24 27
        15 24 27
        18 24 27
        21 24 27
        24 24 27
        27 24 27
        3.947e-308 27 27
        3 27 27
        6 27 27
        9 27 27
        12 27 27
        15 27 27
        18 27 27
        21 27 27
        24 27 27
        27 27 27
      </DataArray>
    </Points>
    <Cells>
      <DataArray type="Int32" Name="connectivity" format="ascii"/>
      <DataArray type="Int32" Name="offsets" format="ascii"/>
      <DataArray type="UInt8" Name="types" format="ascii"/>
    </Cells>
  </Piece>
  </UnstructuredGrid>
</VTKFile>
