<VTKFile type="UnstructuredGrid" version="0.1">
  <UnstructuredGrid>
  <Piece NumberOfPoints="1000" NumberOfCells="0">
    <PointData Scalars="Radius">
      <DataArray type="Float64" Name="Radius" format="ascii">
        1
        1
        1
        1
        1
        1
        1
        1
        1
        1
        1
        1
        1
        1
        1
        1
        1
        1
        1
        1
        1
        1
        1
        1
        1
        1
        1
        1
        1
        1
        1
        1
        1
        1
        1
        1
        1
        1
        1
        1
        1
        1
        1
        1
        1
        1
        1
        1
        1
        1
        1
        1
        1
        1
        1
        1
        1
        1
        1
        1
        1
        1
        1
        1
        1
        1
        1
        1
        1
        1
        1
        1
        1
        1
        1
        1
        1
        1
        1
        1
        1
        1
        1
        1
        1
        1
        1
        1
        1
        1
        1
        1
        1
        1
        1
        1
        1
        1
        1
        1
        1
        1
        1
        1
        1
        1
        1
        1
        1
        1
        1
        1
        1
        1
        1
        1
        1
        1
        1
        1
        1
        1
        1
        1
        1
        1
        1
        1
        1
        1
        1
        1
        1
        1
        1
        1
        1
        1
        1
        1
        1
        1
        1
        1
        1
        1
        1
        1
        1
        1
        1
        1
        1
        1
        1
        1
        1
        1
        1
        1
        1
        1
        1
        1
        1
        1
        1
        1
        1
        1
        1
        1
        1
        1
        1
        1
        1
        1
        1
        1
        1
        1
        1
        1
        1
        1
        1
        1
        1
        1
        1
        1
        1
        1
        1
        1
        1
        1
        1
        1
        1
        1
        1
        1
        1
        1
        1
        1
        1
        1
        1
        1
        1
        1
        1
        1
        1
        1
        1
        1
        1
        1
        1
        1
        1
        1
        1
        1
        1
        1
        1
        1
        1
        1
        1
        1
        1
        1
        1
        1
        1
        1
        1
        1
        1
        1
        1
        1
        1
        1
        1
        1
        1
        1
        1
        1
        1
        1
        1
        1
        1
        1
        1
        1
        1
        1
        1
        1
        1
        1
        1
        1
        1
        1
        1
        1
        1
        1
        1
        1
        1
        1
        1
        1
        1
        1
        1
        1
        1
        1
        1
        1
        1
        1
        1
        1
        1
        1
        1
        1
        1
        1
        1
        1
        1
        1
        1
        1
        1
        1
        1
        1
        1
        1
        1
        1
        1
        1
        1
        1
        1
        1
        1
        1
        1
        1
        1
        1
        1
        1
        1
        1
        1
        1
        1
        1
        1
        1
        1
        1
        1
        1
        1
        1
        1
        1
        1
        1
        1
        1
        1
        1
        1
        1
        1
        1
        1
        1
        1
        1
        1
        1
        1
        1
        1
        1
        1
        1
        1
        1
        1
        1
        1
        1
        1
        1
        1
        1
        1
        1
        1
        1
        1
        1
        1
        1
        1
        1
        1
        1
        1
        1
        1
        1
        1
        1
        1
        1
        1
        1
        1
        1
        1
        1
        1
        1
        1
        1
        1
        1
        1
        1
        1
        1
        1
        1
        1
        1
        1
        1
        1
        1
        1
        1
        1
        1
        1
        1
        1
        1
        1
        1
        1
        1
        1
        1
        1
        1
        1
        1
        1
        1
        1
        1
        1
        1
        1
        1
        1
        1
        1
        1
        1
        1
        1
        1
        1
        1
        1
        1
        1
        1
        1
        1
        1
        1
        1
        1
        1
        1
        1
        1
        1
        1
        1
        1
        1
        1
        1
        1
        1
        1
        1
        1
        1
        1
        1
        1
        1
        1
        1
        1
        1
        1
        1
        1
        1
        1
        1
        1
        1
        1
        1
        1
        1
        1
        1
        1
        1
        1
        1
        1
        1
        1
        1
        1
        1
        1
        1
        1
        1
        1
        1
        1
        1
        1
        1
        1
        1
        1
        1
        1
        1
        1
        1
        1
        1
        1
        1
        1
        1
        1
        1
        1
        1
        1
        1
        1
        1
        1
        1
        1
        1
        1
        1
        1
        1
        1
        1
        1
        1
        1
        1
        1
        1
        1
        1
        1
        1
        1
        1
        1
        1
        1
        1
        1
        1
        1
        1
        1
        1
        1
        1
        1
        1
        1
        1
        1
        1
        1
        1
        1
        1
        1
        1
        1
        1
        1
        1
        1
        1
        1
        1
        1
        1
        1
        1
        1
        1
        1
        1
        1
        1
        1
        1
        1
        1
        1
        1
        1
        1
        1
        1
        1
        1
        1
        1
        1
        1
        1
        1
        1
        1
        1
        1
        1
        1
        1
        1
        1
        1
        1
        1
        1
        1
        1
        1
        1
        1
        1
        1
        1
        1
        1
        1
        1
        1
        1
        1
        1
        1
        1
        1
        1
        1
        1
        1
        1
        1
        1
        1
        1
        1
        1
        1
        1
        1
        1
        1
        1
        1
        1
        1
        1
        1
        1
        1
        1
        1
        1
        1
        1
        1
        1
        1
        1
        1
        1
        1
        1
        1
        1
        1
        1
        1
        1
        1
        1
        1
        1
        1
        1
        1
        1
        1
        1
        1
        1
        1
        1
        1
        1
        1
        1
        1
        1
        1
        1
        1
        1
        1
        1
        1
        1
        1
        1
        1
        1
        1
        1
        1
        1
        1
        1
        1
        1
        1
        1
        1
        1
        1
        1
        1
        1
        1
        1
        1
        1
        1
        1
        1
        1
        1
        1
        1
        1
        1
        1
        1
        1
        1
        1
        1
        1
        1
        1
        1
        1
        1
        1
        1
        1
        1
        1
        1
        1
        1
        1
        1
        1
        1
        1
        1
        1
        1
        1
        1
        1
        1
        1
        1
        1
        1
        1
        1
        1
        1
        1
        1
        1
        1
        1
        1
        1
        1
        1
        1
        1
        1
        1
        1
        1
        1
        1
        1
        1
        1
        1
        1
        1
        1
        1
        1
        1
        1
        1
        1
        1
        1
        1
        1
        1
        1
        1
        1
        1
        1
        1
        1
        1
        1
        1
        1
        1
        1
        1
        1
        1
        1
        1
        1
        1
        1
        1
        1
        1
        1
        1
        1
        1
        1
        1
        1
        1
        1
        1
        1
        1
        1
        1
        1
        1
        1
        1
        1
        1
        1
        1
        1
        1
        1
        1
        1
        1
        1
        1
        1
        1
        1
        1
        1
        1
        1
        1
        1
        1
        1
        1
        1
        1
        1
        1
        1
        1
        1
        1
        1
        1
        1
        1
        1
        1
        1
        1
        1
        1
        1
        1
        1
        1
        1
        1
        1
        1
        1
        1
        1
        1
        1
        1
        1
        1
        1
        1
        1
        1
        1
        1
        1
        1
        1
        1
        1
        1
        1
        1
        1
        1
        1
        1
        1
        1
        1
        1
        1
        1
        1
        1
        1
        1
        1
        1
        1
        1
        1
        1
        1
        1
        1
        1
        1
        1
        1
        1
        1
        1
        1
        1
        1
        1
        1
        1
        1
        1
        1
        1
        1
        1
        1
        1
      </DataArray>
    </PointData>
    <Points>
      <DataArray type="Float64" NumberOfComponents="3" format="ascii">
        2 2 2
        3 1.29382e-310 1.29382e-310
        6 1.29831e-310 1.29831e-310
        9 1.29434e-310 1.29434e-310
        12 1.29831e-310 1.29831e-310
        15 1.29434e-310 1.29434e-310
        18 1.29831e-310 1.29831e-310
        21 1.29831e-310 1.29831e-310
        24 1.29434e-310 1.29434e-310
        27 1.19655e-310 1.19655e-310
        2.58764e-310 3 1.29382e-310
        3 3 1.4073e-310
        6 3 1.41312e-310
        9 3 1.40796e-310
        12 3 1.41312e-310
        15 3 1.40796e-310
        18 3 1.41312e-310
        21 3 1.41312e-310
        24 3 1.40796e-310
        27 3 1.29315e-310
        2.59663e-310 6 1.29831e-310
        3 6 1.41312e-310
        6 6 1.41929e-310
        9 6 1.41386e-310
        12 6 1.41929e-310
        15 6 1.41386e-310
        18 6 1.41929e-310
        21 6 1.41929e-310
        24 6 1.41386e-310
        27 6 1.29757e-310
        2.58868e-310 9 1.29434e-310
        3 9 1.40796e-310
        6 9 1.41386e-310
        9 9 1.40866e-310
        12 9 1.41386e-310
        15 9 1.40866e-310
        18 9 1.41386e-310
        21 9 1.41386e-310
        24 9 1.40866e-310
        27 9 1.29365e-310
        2.59663e-310 12 1.29831e-310
        3 12 1.41312e-310
        6 12 1.41929e-310
        9 12 1.41386e-310
        12 12 1.41929e-310
        15 12 1.41386e-310
        18 12 1.41929e-310
        21 12 1.41929e-310
        24 12 1.41386e-310
        27 12 1.29757e-310
        2.58868e-310 15 1.29434e-310
        3 15 1.40796e-310
        6 15 1.41386e-310
        9 15 1.40866e-310
        12 15 1.41386e-310
        15 15 1.40866e-310
        18 15 1.41386e-310
        21 15 1.41386e-310
        24 15 1.40866e-310
        27 15 1.29365e-310
        2.59663e-310 18 1.29831e-310
        3 18 1.41312e-310
        6 18 1.41929e-310
        9 18 1.41386e-310
        12 18 1.41929e-310
        15 18 1.41386e-310
        18 18 1.41929e-310
        21 18 1.41929e-310
        24 18 1.41386e-310
        27 18 1.29757e-310
        2.59663e-310 21 1.29831e-310
        3 21 1.41312e-310
        6 21 1.41929e-310
        9 21 1.41386e-310
        12 21 1.41929e-310
        15 21 1.41386e-310
        18 21 1.41929e-310
        21 21 1.41929e-310
        24 21 1.41386e-310
        27 21 1.29757e-310
        2.58868e-310 24 1.29434e-310
        3 24 1.40796e-310
        6 24 1.41386e-310
        9 24 1.40866e-310
        12 24 1.41386e-310
        15 24 1.40866e-310
        18 24 1.41386e-310
        21 24 1.41386e-310
        24 24 1.40866e-310
        27 24 1.29365e-310
        2.3931e-310 27 1.19655e-310
        3 27 1.29315e-310
        6 27 1.29757e-310
        9 27 1.29365e-310
        12 27 1.29757e-310
        15 27 1.29365e-310
        18 27 1.29757e-310
        21 27 1.29757e-310
        24 27 1.29365e-310
        27 27 1.19606e-310
        2.58764e-310 1.29382e-310 3
        3 1.4073e-310 3
        6 1.41312e-310 3
        9 1.40796e-310 3
        12 1.41312e-310 3
        15 1.40796e-310 3
        18 1.41312e-310 3
        21 1.41312e-310 3
        24 1.40796e-310 3
        27 1.29315e-310 3
        2.8146e-310 3 3
        3 3 3
        6 3 3
        9 3 3
        12 3 3
        15 3 3
        18 3 3
        21 3 3
        24 3 3
        27 3 3
        2.82624e-310 6 3
        3 6 3
        6 6 3
        9 6 3
        12 6 3
        15 6 3
        18 6 3
        21 6 3
        24 6 3
        27 6 3
        2.81593e-310 9 3
        3 9 3
        6 9 3
        9 9 3
        12 9 3
        15 9 3
        18 9 3
        21 9 3
        24 9 3
        27 9 3
        2.82624e-310 12 3
        3 12 3
        6 12 3
        9 12 3
        12 12 3
        15 12 3
        18 12 3
        21 12 3
        24 12 3
        27 12 3
        2.81593e-310 15 3
        3 15 3
        6 15 3
        9 15 3
        12 15 3
        15 15 3
        18 15 3
        21 15 3
        24 15 3
        27 15 3
        2.82624e-310 18 3
        3 18 3
        6 18 3
        9 18 3
        12 18 3
        15 18 3
        18 18 3
        21 18 3
        24 18 3
        27 18 3
        2.82624e-310 21 3
        3 21 3
        6 21 3
        9 21 3
        12 21 3
        15 21 3
        18 21 3
        21 21 3
        24 21 3
        27 21 3
        2.81593e-310 24 3
        3 24 3
        6 24 3
        9 24 3
        12 24 3
        15 24 3
        18 24 3
        21 24 3
        24 24 3
        27 24 3
        2.58631e-310 27 3
        3 27 3
        6 27 3
        9 27 3
        12 27 3
        15 27 3
        18 27 3
        21 27 3
        24 27 3
        27 27 3
        2.59663e-310 1.29831e-310 6
        3 1.41312e-310 6
        6 1.41929e-310 6
        9 1.41386e-310 6
        12 1.41929e-310 6
        15 1.41386e-310 6
        18 1.41929e-310 6
        21 1.41929e-310 6
        24 1.41386e-310 6
        27 1.29757e-310 6
        2.82624e-310 3 6
        3 3 6
        6 3 6
        9 3 6
        12 3 6
        15 3 6
        18 3 6
        21 3 6
        24 3 6
        27 3 6
        2.83857e-310 6 6
        3 6 6
        6 6 6
        9 6 6
        12 6 6
        15 6 6
        18 6 6
        21 6 6
        24 6 6
        27 6 6
        2.82772e-310 9 6
        3 9 6
        6 9 6
        9 9 6
        12 9 6
        15 9 6
        18 9 6
        21 9 6
        24 9 6
        27 9 6
        2.83857e-310 12 6
        3 12 6
        6 12 6
        9 12 6
        12 12 6
        15 12 6
        18 12 6
        21 12 6
        24 12 6
        27 12 6
        2.82772e-310 15 6
        3 15 6
        6 15 6
        9 15 6
        12 15 6
        15 15 6
        18 15 6
        21 15 6
        24 15 6
        27 15 6
        2.83857e-310 18 6
        3 18 6
        6 18 6
        9 18 6
        12 18 6
        15 18 6
        18 18 6
        21 18 6
        24 18 6
        27 18 6
        2.83857e-310 21 6
        3 21 6
        6 21 6
        9 21 6
        12 21 6
        15 21 6
        18 21 6
        21 21 6
        24 21 6
        27 21 6
        2.82772e-310 24 6
        3 24 6
        6 24 6
        9 24 6
        12 24 6
        15 24 6
        18 24 6
        21 24 6
        24 24 6
        27 24 6
        2.59514e-310 27 6
        3 27 6
        6 27 6
        9 27 6
        12 27 6
        15 27 6
        18 27 6
        21 27 6
        24 27 6
        27 27 6
        2.58868e-310 1.29434e-310 9
        3 1.40796e-310 9
        6 1.41386e-310 9
        9 1.40866e-310 9
        12 1.41386e-310 9
        15 1.40866e-310 9
        18 1.41386e-310 9
        21 1.41386e-310 9
        24 1.40866e-310 9
        27 1.29365e-310 9
        2.81593e-310 3 9
        3 3 9
        6 3 9
        9 3 9
        12 3 9
        15 3 9
        18 3 9
        21 3 9
        24 3 9
        27 3 9
        2.82772e-310 6 9
        3 6 9
        6 6 9
        9 6 9
        12 6 9
        15 6 9
        18 6 9
        21 6 9
        24 6 9
        27 6 9
        2.81732e-310 9 9
        3 9 9
        6 9 9
        9 9 9
        12 9 9
        15 9 9
        18 9 9
        21 9 9
        24 9 9
        27 9 9
        2.82772e-310 12 9
        3 12 9
        6 12 9
        9 12 9
        12 12 9
        15 12 9
        18 12 9
        21 12 9
        24 12 9
        27 12 9
        2.81732e-310 15 9
        3 15 9
        6 15 9
        9 15 9
        12 15 9
        15 15 9
        18 15 9
        21 15 9
        24 15 9
        27 15 9
        2.82772e-310 18 9
        3 18 9
        6 18 9
        9 18 9
        12 18 9
        15 18 9
        18 18 9
        21 18 9
        24 18 9
        27 18 9
        2.82772e-310 21 9
        3 21 9
        6 21 9
        9 21 9
        12 21 9
        15 21 9
        18 21 9
        21 21 9
        24 21 9
        27 21 9
        2.81732e-310 24 9
        3 24 9
        6 24 9
        9 24 9
        12 24 9
        15 24 9
        18 24 9
        21 24 9
        24 24 9
        27 24 9
        2.58729e-310 27 9
        3 27 9
        6 27 9
        9 27 9
        12 27 9
        15 27 9
        18 27 9
        21 27 9
        24 27 9
        27 27 9
        2.59663e-310 1.29831e-310 12
        3 1.41312e-310 12
        6 1.41929e-310 12
        9 1.41386e-310 12
        12 1.41929e-310 12
        15 1.41386e-310 12
        18 1.41929e-310 12
        21 1.41929e-310 12
        24 1.41386e-310 12
        27 1.29757e-310 12
        2.82624e-310 3 12
        3 3 12
        6 3 12
        9 3 12
        12 3 12
        15 3 12
        18 3 12
        21 3 12
        24 3 12
        27 3 12
        2.83857e-310 6 12
        3 6 12
        6 6 12
        9 6 12
        12 6 12
        15 6 12
        18 6 12
        21 6 12
        24 6 12
        27 6 12
        2.82772e-310 9 12
        3 9 12
        6 9 12
        9 9 12
        12 9 12
        15 9 12
        18 9 12
        21 9 12
        24 9 12
        27 9 12
        2.83857e-310 12 12
        3 12 12
        6 12 12
        9 12 12
        12 12 12
        15 12 12
        18 12 12
        21 12 12
        24 12 12
        27 12 12
        2.82772e-310 15 12
        3 15 12
        6 15 12
        9 15 12
        12 15 12
        15 15 12
        18 15 12
        21 15 12
        24 15 12
        27 15 12
        2.83857e-310 18 12
        3 18 12
        6 18 12
        9 18 12
        12 18 12
        15 18 12
        18 18 12
        21 18 12
        24 18 12
        27 18 12
        2.83857e-310 21 12
        3 21 12
        6 21 12
        9 21 12
        12 21 12
        15 21 12
        18 21 12
        21 21 12
        24 21 12
        27 21 12
        2.82772e-310 24 12
        3 24 12
        6 24 12
        9 24 12
        12 24 12
        15 24 12
        18 24 12
        21 24 12
        24 24 12
        27 24 12
        2.59514e-310 27 12
        3 27 12
        6 27 12
        9 27 12
        12 27 12
        15 27 12
        18 27 12
        21 27 12
        24 27 12
        27 27 12
        2.58868e-310 1.29434e-310 15
        3 1.40796e-310 15
        6 1.41386e-310 15
        9 1.40866e-310 15
        12 1.41386e-310 15
        15 1.40866e-310 15
        18 1.41386e-310 15
        21 1.41386e-310 15
        24 1.40866e-310 15
        27 1.29365e-310 15
        2.81593e-310 3 15
        3 3 15
        6 3 15
        9 3 15
        12 3 15
        15 3 15
        18 3 15
        21 3 15
        24 3 15
        27 3 15
        2.82772e-310 6 15
        3 6 15
        6 6 15
        9 6 15
        12 6 15
        15 6 15
        18 6 15
        21 6 15
        24 6 15
        27 6 15
        2.81732e-310 9 15
        3 9 15
        6 9 15
        9 9 15
        12 9 15
        15 9 15
        18 9 15
        21 9 15
        24 9 15
        27 9 15
        2.82772e-310 12 15
        3 12 15
        6 12 15
        9 12 15
        12 12 15
        15 12 15
        18 12 15
        21 12 15
        24 12 15
        27 12 15
        2.81732e-310 15 15
        3 15 15
        6 15 15
        9 15 15
        12 15 15
        15 15 15
        18 15 15
        21 15 15
        24 15 15
        27 15 15
        2.82772e-310 18 15
        3 18 15
        6 18 15
        9 18 15
        12 18 15
        15 18 15
        18 18 15
        21 18 15
        24 18 15
        27 18 15
        2.82772e-310 21 15
        3 21 15
        6 21 15
        9 21 15
        12 21 15
        15 21 15
        18 21 15
        21 21 15
        24 21 15
        27 21 15
        2.81732e-310 24 15
        3 24 15
        6 24 15
        9 24 15
        12 24 15
        15 24 15
        18 24 15
        21 24 15
        24 24 15
        27 24 15
        2.58729e-310 27 15
        3 27 15
        6 27 15
        9 27 15
        12 27 15
        15 27 15
        18 27 15
        21 27 15
        24 27 15
        27 27 15
        2.59663e-310 1.29831e-310 18
        3 1.41312e-310 18
        6 1.41929e-310 18
        9 1.41386e-310 18
        12 1.41929e-310 18
        15 1.41386e-310 18
        18 1.41929e-310 18
        21 1.41929e-310 18
        24 1.41386e-310 18
        27 1.29757e-310 18
        2.82624e-310 3 18
        3 3 18
        6 3 18
        9 3 18
        12 3 18
        15 3 18
        18 3 18
        21 3 18
        24 3 18
        27 3 18
        2.83857e-310 6 18
        3 6 18
        6 6 18
        9 6 18
        12 6 18
        15 6 18
        18 6 18
        21 6 18
        24 6 18
        27 6 18
        2.82772e-310 9 18
        3 9 18
        6 9 18
        9 9 18
        12 9 18
        15 9 18
        18 9 18
        21 9 18
        24 9 18
        27 9 18
        2.83857e-310 12 18
        3 12 18
        6 12 18
        9 12 18
        12 12 18
        15 12 18
        18 12 18
        21 12 18
        24 12 18
        27 12 18
        2.82772e-310 15 18
        3 15 18
        6 15 18
        9 15 18
        12 15 18
        15 15 18
        18 15 18
        21 15 18
        24 15 18
        27 15 18
        2.83857e-310 18 18
        3 18 18
        6 18 18
        9 18 18
        12 18 18
        15 18 18
        18 18 18
        21 18 18
        24 18 18
        27 18 18
        2.83857e-310 21 18
        3 21 18
        6 21 18
        9 21 18
        12 21 18
        15 21 18
        18 21 18
        21 21 18
        24 21 18
        27 21 18
        2.82772e-310 24 18
        3 24 18
        6 24 18
        9 24 18
        12 24 18
        15 24 18
        18 24 18
        21 24 18
        24 24 18
        27 24 18
        2.59514e-310 27 18
        3 27 18
        6 27 18
        9 27 18
        12 27 18
        15 27 18
        18 27 18
        21 27 18
        24 27 18
        27 27 18
        2.59663e-310 1.29831e-310 21
        3 1.41312e-310 21
        6 1.41929e-310 21
        9 1.41386e-310 21
        12 1.41929e-310 21
        15 1.41386e-310 21
        18 1.41929e-310 21
        21 1.41929e-310 21
        24 1.41386e-310 21
        27 1.29757e-310 21
        2.82624e-310 3 21
        3 3 21
        6 3 21
        9 3 21
        12 3 21
        15 3 21
        18 3 21
        21 3 21
        24 3 21
        27 3 21
        2.83857e-310 6 21
        3 6 21
        6 6 21
        9 6 21
        12 6 21
        15 6 21
        18 6 21
        21 6 21
        24 6 21
        27 6 21
        2.82772e-310 9 21
        3 9 21
        6 9 21
        9 9 21
        12 9 21
        15 9 21
        18 9 21
        21 9 21
        24 9 21
        27 9 21
        2.83857e-310 12 21
        3 12 21
        6 12 21
        9 12 21
        12 12 21
        15 12 21
        18 12 21
        21 12 21
        24 12 21
        27 12 21
        2.82772e-310 15 21
        3 15 21
        6 15 21
        9 15 21
        12 15 21
        15 15 21
        18 15 21
        21 15 21
        24 15 21
        27 15 21
        2.83857e-310 18 21
        3 18 21
        6 18 21
        9 18 21
        12 18 21
        15 18 21
        18 18 21
        21 18 21
        24 18 21
        27 18 21
        2.83857e-310 21 21
        3 21 21
        6 21 21
        9 21 21
        12 21 21
        15 21 21
        18 21 21
        21 21 21
        24 21 21
        27 21 21
        2.82772e-310 24 21
        3 24 21
        6 24 21
        9 24 21
        12 24 21
        15 24 21
        18 24 21
        21 24 21
        24 24 21
        27 24 21
        2.59514e-310 27 21
        3 27 21
        6 27 21
        9 27 21
        12 27 21
        15 27 21
        18 27 21
        21 27 21
        24 27 21
        27 27 21
        2.58868e-310 1.29434e-310 24
        3 1.40796e-310 24
        6 1.41386e-310 24
        9 1.40866e-310 24
        12 1.41386e-310 24
        15 1.40866e-310 24
        18 1.41386e-310 24
        21 1.41386e-310 24
        24 1.40866e-310 24
        27 1.29365e-310 24
        2.81593e-310 3 24
        3 3 24
        6 3 24
        9 3 24
        12 3 24
        15 3 24
        18 3 24
        21 3 24
        24 3 24
        27 3 24
        2.82772e-310 6 24
        3 6 24
        6 6 24
        9 6 24
        12 6 24
        15 6 24
        18 6 24
        21 6 24
        24 6 24
        27 6 24
        2.81732e-310 9 24
        3 9 24
        6 9 24
        9 9 24
        12 9 24
        15 9 24
        18 9 24
        21 9 24
        24 9 24
        27 9 24
        2.82772e-310 12 24
        3 12 24
        6 12 24
        9 12 24
        12 12 24
        15 12 24
        18 12 24
        21 12 24
        24 12 24
        27 12 24
        2.81732e-310 15 24
        3 15 24
        6 15 24
        9 15 24
        12 15 24
        15 15 24
        18 15 24
        21 15 24
        24 15 24
        27 15 24
        2.82772e-310 18 24
        3 18 24
        6 18 24
        9 18 24
        12 18 24
        15 18 24
        18 18 24
        21 18 24
        24 18 24
        27 18 24
        2.82772e-310 21 24
        3 21 24
        6 21 24
        9 21 24
        12 21 24
        15 21 24
        18 21 24
        21 21 24
        24 21 24
        27 21 24
        2.81732e-310 24 24
        3 24 24
        6 24 24
        9 24 24
        12 24 24
        15 24 24
        18 24 24
        21 24 24
        24 24 24
        27 24 24
        2.58729e-310 27 24
        3 27 24
        6 27 24
        9 27 24
        12 27 24
        15 27 24
        18 27 24
        21 27 24
        24 27 24
        27 27 24
        2.3931e-310 1.19655e-310 27
        3 1.29315e-310 27
        6 1.29757e-310 27
        9 1.29365e-310 27
        12 1.29757e-310 27
        15 1.29365e-310 27
        18 1.29757e-310 27
        21 1.29757e-310 27
        24 1.29365e-310 27
        27 1.19606e-310 27
        2.58631e-310 3 27
        3 3 27
        6 3 27
        9 3 27
        12 3 27
        15 3 27
        18 3 27
        21 3 27
        24 3 27
        27 3 27
        2.59514e-310 6 27
        3 6 27
        6 6 27
        9 6 27
        12 6 27
        15 6 27
        18 6 27
        21 6 27
        24 6 27
        27 6 27
        2.58729e-310 9 27
        3 9 27
        6 9 27
        9 9 27
        12 9 27
        15 9 27
        18 9 27
        21 9 27
        24 9 27
        27 9 27
        2.59514e-310 12 27
        3 12 27
        6 12 27
        9 12 27
        12 12 27
        15 12 27
        18 12 27
        21 12 27
        24 12 27
        27 12 27
        2.58729e-310 15 27
        3 15 27
        6 15 27
        9 15 27
        12 15 27
        15 15 27
        18 15 27
        21 15 27
        24 15 27
        27 15 27
        2.59514e-310 18 27
        3 18 27
        6 18 27
        9 18 27
        12 18 27
        15 18 27
        18 18 27
        21 18 27
        24 18 27
        27 18 27
        2.59514e-310 21 27
        3 21 27
        6 21 27
        9 21 27
        12 21 27
        15 21 27
        18 21 27
        21 21 27
        24 21 27
        27 21 27
        2.58729e-310 24 27
        3 24 27
        6 24 27
        9 24 27
        12 24 27
        15 24 27
        18 24 27
        21 24 27
        24 24 27
        27 24 27
        2.39212e-310 27 27
        3 27 27
        6 27 27
        9 27 27
        12 27 27
        15 27 27
        18 27 27
        21 27 27
        24 27 27
        27 27 27
      </DataArray>
    </Points>
    <Cells>
      <DataArray type="Int32" Name="connectivity" format="ascii"/>
      <DataArray type="Int32" Name="offsets" format="ascii"/>
      <DataArray type="UInt8" Name="types" format="ascii"/>
    </Cells>
  </Piece>
  </UnstructuredGrid>
</VTKFile>
