<VTKFile type="UnstructuredGrid" version="0.1">
  <UnstructuredGrid>
  <Piece NumberOfPoints="1000" NumberOfCells="0">
    <PointData Scalars="Radius">
      <DataArray type="Float64" Name="Radius" format="ascii">
        1
        1
        1
        1
        1
        1
        1
        1
        1
        1
        1
        1
        1
        1
        1
        1
        1
        1
        1
        1
        1
        1
        1
        1
        1
        1
        1
        1
        1
        1
        1
        1
        1
        1
        1
        1
        1
        1
        1
        1
        1
        1
        1
        1
        1
        1
        1
        1
        1
        1
        1
        1
        1
        1
        1
        1
        1
        1
        1
        1
        1
        1
        1
        1
        1
        1
        1
        1
        1
        1
        1
        1
        1
        1
        1
        1
        1
        1
        1
        1
        1
        1
        1
        1
        1
        1
        1
        1
        1
        1
        1
        1
        1
        1
        1
        1
        1
        1
        1
        1
        1
        1
        1
        1
        1
        1
        1
        1
        1
        1
        1
        1
        1
        1
        1
        1
        1
        1
        1
        1
        1
        1
        1
        1
        1
        1
        1
        1
        1
        1
        1
        1
        1
        1
        1
        1
        1
        1
        1
        1
        1
        1
        1
        1
        1
        1
        1
        1
        1
        1
        1
        1
        1
        1
        1
        1
        1
        1
        1
        1
        1
        1
        1
        1
        1
        1
        1
        1
        1
        1
        1
        1
        1
        1
        1
        1
        1
        1
        1
        1
        1
        1
        1
        1
        1
        1
        1
        1
        1
        1
        1
        1
        1
        1
        1
        1
        1
        1
        1
        1
        1
        1
        1
        1
        1
        1
        1
        1
        1
        1
        1
        1
        1
        1
        1
        1
        1
        1
        1
        1
        1
        1
        1
        1
        1
        1
        1
        1
        1
        1
        1
        1
        1
        1
        1
        1
        1
        1
        1
        1
        1
        1
        1
        1
        1
        1
        1
        1
        1
        1
        1
        1
        1
        1
        1
        1
        1
        1
        1
        1
        1
        1
        1
        1
        1
        1
        1
        1
        1
        1
        1
        1
        1
        1
        1
        1
        1
        1
        1
        1
        1
        1
        1
        1
        1
        1
        1
        1
        1
        1
        1
        1
        1
        1
        1
        1
        1
        1
        1
        1
        1
        1
        1
        1
        1
        1
        1
        1
        1
        1
        1
        1
        1
        1
        1
        1
        1
        1
        1
        1
        1
        1
        1
        1
        1
        1
        1
        1
        1
        1
        1
        1
        1
        1
        1
        1
        1
        1
        1
        1
        1
        1
        1
        1
        1
        1
        1
        1
        1
        1
        1
        1
        1
        1
        1
        1
        1
        1
        1
        1
        1
        1
        1
        1
        1
        1
        1
        1
        1
        1
        1
        1
        1
        1
        1
        1
        1
        1
        1
        1
        1
        1
        1
        1
        1
        1
        1
        1
        1
        1
        1
        1
        1
        1
        1
        1
        1
        1
        1
        1
        1
        1
        1
        1
        1
        1
        1
        1
        1
        1
        1
        1
        1
        1
        1
        1
        1
        1
        1
        1
        1
        1
        1
        1
        1
        1
        1
        1
        1
        1
        1
        1
        1
        1
        1
        1
        1
        1
        1
        1
        1
        1
        1
        1
        1
        1
        1
        1
        1
        1
        1
        1
        1
        1
        1
        1
        1
        1
        1
        1
        1
        1
        1
        1
        1
        1
        1
        1
        1
        1
        1
        1
        1
        1
        1
        1
        1
        1
        1
        1
        1
        1
        1
        1
        1
        1
        1
        1
        1
        1
        1
        1
        1
        1
        1
        1
        1
        1
        1
        1
        1
        1
        1
        1
        1
        1
        1
        1
        1
        1
        1
        1
        1
        1
        1
        1
        1
        1
        1
        1
        1
        1
        1
        1
        1
        1
        1
        1
        1
        1
        1
        1
        1
        1
        1
        1
        1
        1
        1
        1
        1
        1
        1
        1
        1
        1
        1
        1
        1
        1
        1
        1
        1
        1
        1
        1
        1
        1
        1
        1
        1
        1
        1
        1
        1
        1
        1
        1
        1
        1
        1
        1
        1
        1
        1
        1
        1
        1
        1
        1
        1
        1
        1
        1
        1
        1
        1
        1
        1
        1
        1
        1
        1
        1
        1
        1
        1
        1
        1
        1
        1
        1
        1
        1
        1
        1
        1
        1
        1
        1
        1
        1
        1
        1
        1
        1
        1
        1
        1
        1
        1
        1
        1
        1
        1
        1
        1
        1
        1
        1
        1
        1
        1
        1
        1
        1
        1
        1
        1
        1
        1
        1
        1
        1
        1
        1
        1
        1
        1
        1
        1
        1
        1
        1
        1
        1
        1
        1
        1
        1
        1
        1
        1
        1
        1
        1
        1
        1
        1
        1
        1
        1
        1
        1
        1
        1
        1
        1
        1
        1
        1
        1
        1
        1
        1
        1
        1
        1
        1
        1
        1
        1
        1
        1
        1
        1
        1
        1
        1
        1
        1
        1
        1
        1
        1
        1
        1
        1
        1
        1
        1
        1
        1
        1
        1
        1
        1
        1
        1
        1
        1
        1
        1
        1
        1
        1
        1
        1
        1
        1
        1
        1
        1
        1
        1
        1
        1
        1
        1
        1
        1
        1
        1
        1
        1
        1
        1
        1
        1
        1
        1
        1
        1
        1
        1
        1
        1
        1
        1
        1
        1
        1
        1
        1
        1
        1
        1
        1
        1
        1
        1
        1
        1
        1
        1
        1
        1
        1
        1
        1
        1
        1
        1
        1
        1
        1
        1
        1
        1
        1
        1
        1
        1
        1
        1
        1
        1
        1
        1
        1
        1
        1
        1
        1
        1
        1
        1
        1
        1
        1
        1
        1
        1
        1
        1
        1
        1
        1
        1
        1
        1
        1
        1
        1
        1
        1
        1
        1
        1
        1
        1
        1
        1
        1
        1
        1
        1
        1
        1
        1
        1
        1
        1
        1
        1
        1
        1
        1
        1
        1
        1
        1
        1
        1
        1
        1
        1
        1
        1
        1
        1
        1
        1
        1
        1
        1
        1
        1
        1
        1
        1
        1
        1
        1
        1
        1
        1
        1
        1
        1
        1
        1
        1
        1
        1
        1
        1
        1
        1
        1
        1
        1
        1
        1
        1
        1
        1
        1
        1
        1
        1
        1
        1
        1
        1
        1
        1
        1
        1
        1
        1
        1
        1
        1
        1
        1
        1
        1
        1
        1
        1
        1
        1
        1
        1
        1
        1
        1
        1
        1
        1
        1
        1
        1
        1
        1
        1
        1
        1
        1
        1
        1
        1
        1
        1
        1
        1
        1
        1
        1
        1
        1
        1
        1
        1
        1
        1
        1
        1
        1
        1
        1
        1
        1
        1
        1
        1
        1
        1
        1
        1
        1
        1
        1
        1
        1
        1
        1
        1
        1
        1
        1
        1
        1
        1
        1
        1
        1
        1
        1
        1
        1
        1
        1
        1
        1
        1
        1
        1
        1
      </DataArray>
    </PointData>
    <Points>
      <DataArray type="Float64" NumberOfComponents="3" format="ascii">
        19 19 19
        3 2.9434e-307 2.9434e-307
        6 2.7485e-307 2.7485e-307
        9 2.73061e-307 2.73061e-307
        12 2.73821e-307 2.73821e-307
        15 2.72976e-307 2.72976e-307
        18 2.73814e-307 2.73814e-307
        21 2.73814e-307 2.73814e-307
        24 2.72976e-307 2.72976e-307
        27 2.52353e-307 2.52353e-307
        3.17736e-307 3 2.9434e-307
        3 3 3.73327e-307
        6 3 3.0233e-307
        9 3 2.97197e-307
        12 3 2.98047e-307
        15 3 2.9694e-307
        18 3 2.98027e-307
        21 3 2.98027e-307
        24 3 2.9694e-307
        27 3 2.72726e-307
        2.97116e-307 6 2.7485e-307
        3 6 3.0233e-307
        6 6 3.01215e-307
        9 6 2.98468e-307
        12 6 2.99362e-307
        15 6 2.98183e-307
        18 6 2.99327e-307
        21 6 2.99327e-307
        24 6 2.98183e-307
        27 6 2.73657e-307
        2.952e-307 9 2.73061e-307
        3 9 2.97197e-307
        6 9 2.98468e-307
        9 9 2.97206e-307
        12 9 2.98211e-307
        15 9 2.97086e-307
        18 9 2.98183e-307
        21 9 2.98183e-307
        24 9 2.97086e-307
        27 9 2.7283e-307
        2.96023e-307 12 2.73821e-307
        3 12 2.98047e-307
        6 12 2.99362e-307
        9 12 2.98211e-307
        12 12 2.99339e-307
        15 12 2.98183e-307
        18 12 2.99327e-307
        21 12 2.99327e-307
        24 12 2.98183e-307
        27 12 2.73657e-307
        2.95109e-307 15 2.72976e-307
        3 15 2.9694e-307
        6 15 2.98183e-307
        9 15 2.97086e-307
        12 15 2.98183e-307
        15 15 2.97086e-307
        18 15 2.98183e-307
        21 15 2.98183e-307
        24 15 2.97086e-307
        27 15 2.7283e-307
        2.96015e-307 18 2.73814e-307
        3 18 2.98027e-307
        6 18 2.99327e-307
        9 18 2.98183e-307
        12 18 2.99327e-307
        15 18 2.98183e-307
        18 18 2.99327e-307
        21 18 2.99327e-307
        24 18 2.98183e-307
        27 18 2.73657e-307
        2.96015e-307 21 2.73814e-307
        3 21 2.98027e-307
        6 21 2.99327e-307
        9 21 2.98183e-307
        12 21 2.99327e-307
        15 21 2.98183e-307
        18 21 2.99327e-307
        21 21 2.99327e-307
        24 21 2.98183e-307
        27 21 2.73657e-307
        2.95109e-307 24 2.72976e-307
        3 24 2.9694e-307
        6 24 2.98183e-307
        9 24 2.97086e-307
        12 24 2.98183e-307
        15 24 2.97086e-307
        18 24 2.98183e-307
        21 24 2.98183e-307
        24 24 2.97086e-307
        27 24 2.7283e-307
        2.72814e-307 27 2.52353e-307
        3 27 2.72726e-307
        6 27 2.73657e-307
        9 27 2.7283e-307
        12 27 2.73657e-307
        15 27 2.7283e-307
        18 27 2.73657e-307
        21 27 2.73657e-307
        24 27 2.7283e-307
        27 27 2.52249e-307
        3.17736e-307 2.9434e-307 3
        3 3.73327e-307 3
        6 3.0233e-307 3
        9 2.97197e-307 3
        12 2.98047e-307 3
        15 2.9694e-307 3
        18 2.98027e-307 3
        21 2.98027e-307 3
        24 2.9694e-307 3
        27 2.72726e-307 3
        4.02009e-307 3 3
        3 3 3
        6 3 3
        9 3 3
        12 3 3
        15 3 3
        18 3 3
        21 3 3
        24 3 3
        27 3 3
        3.2677e-307 6 3
        3 6 3
        6 6 3
        9 6 3
        12 6 3
        15 6 3
        18 6 3
        21 6 3
        24 6 3
        27 6 3
        3.21291e-307 9 3
        3 9 3
        6 9 3
        9 9 3
        12 9 3
        15 9 3
        18 9 3
        21 9 3
        24 9 3
        27 9 3
        3.22213e-307 12 3
        3 12 3
        6 12 3
        9 12 3
        12 12 3
        15 12 3
        18 12 3
        21 12 3
        24 12 3
        27 12 3
        3.21016e-307 15 3
        3 15 3
        6 15 3
        9 15 3
        12 15 3
        15 15 3
        18 15 3
        21 15 3
        24 15 3
        27 15 3
        3.22191e-307 18 3
        3 18 3
        6 18 3
        9 18 3
        12 18 3
        15 18 3
        18 18 3
        21 18 3
        24 18 3
        27 18 3
        3.22191e-307 21 3
        3 21 3
        6 21 3
        9 21 3
        12 21 3
        15 21 3
        18 21 3
        21 21 3
        24 21 3
        27 21 3
        3.21016e-307 24 3
        3 24 3
        6 24 3
        9 24 3
        12 24 3
        15 24 3
        18 24 3
        21 24 3
        24 24 3
        27 24 3
        2.94839e-307 27 3
        3 27 3
        6 27 3
        9 27 3
        12 27 3
        15 27 3
        18 27 3
        21 27 3
        24 27 3
        27 27 3
        2.97116e-307 2.7485e-307 6
        3 3.0233e-307 6
        6 3.01215e-307 6
        9 2.98468e-307 6
        12 2.99362e-307 6
        15 2.98183e-307 6
        18 2.99327e-307 6
        21 2.99327e-307 6
        24 2.98183e-307 6
        27 2.73657e-307 6
        3.2677e-307 3 6
        3 3 6
        6 3 6
        9 3 6
        12 3 6
        15 3 6
        18 3 6
        21 3 6
        24 3 6
        27 3 6
        3.25614e-307 6 6
        3 6 6
        6 6 6
        9 6 6
        12 6 6
        15 6 6
        18 6 6
        21 6 6
        24 6 6
        27 6 6
        3.22666e-307 9 6
        3 9 6
        6 9 6
        9 9 6
        12 9 6
        15 9 6
        18 9 6
        21 9 6
        24 9 6
        27 9 6
        3.23634e-307 12 6
        3 12 6
        6 12 6
        9 12 6
        12 12 6
        15 12 6
        18 12 6
        21 12 6
        24 12 6
        27 12 6
        3.2236e-307 15 6
        3 15 6
        6 15 6
        9 15 6
        12 15 6
        15 15 6
        18 15 6
        21 15 6
        24 15 6
        27 15 6
        3.23597e-307 18 6
        3 18 6
        6 18 6
        9 18 6
        12 18 6
        15 18 6
        18 18 6
        21 18 6
        24 18 6
        27 18 6
        3.23597e-307 21 6
        3 21 6
        6 21 6
        9 21 6
        12 21 6
        15 21 6
        18 21 6
        21 21 6
        24 21 6
        27 21 6
        3.2236e-307 24 6
        3 24 6
        6 24 6
        9 24 6
        12 24 6
        15 24 6
        18 24 6
        21 24 6
        24 24 6
        27 24 6
        2.95846e-307 27 6
        3 27 6
        6 27 6
        9 27 6
        12 27 6
        15 27 6
        18 27 6
        21 27 6
        24 27 6
        27 27 6
        2.952e-307 2.73061e-307 9
        3 2.97197e-307 9
        6 2.98468e-307 9
        9 2.97206e-307 9
        12 2.98211e-307 9
        15 2.97086e-307 9
        18 2.98183e-307 9
        21 2.98183e-307 9
        24 2.97086e-307 9
        27 2.7283e-307 9
        3.21291e-307 3 9
        3 3 9
        6 3 9
        9 3 9
        12 3 9
        15 3 9
        18 3 9
        21 3 9
        24 3 9
        27 3 9
        3.22666e-307 6 9
        3 6 9
        6 6 9
        9 6 9
        12 6 9
        15 6 9
        18 6 9
        21 6 9
        24 6 9
        27 6 9
        3.21303e-307 9 9
        3 9 9
        6 9 9
        9 9 9
        12 9 9
        15 9 9
        18 9 9
        21 9 9
        24 9 9
        27 9 9
        3.2239e-307 12 9
        3 12 9
        6 12 9
        9 12 9
        12 12 9
        15 12 9
        18 12 9
        21 12 9
        24 12 9
        27 12 9
        3.21174e-307 15 9
        3 15 9
        6 15 9
        9 15 9
        12 15 9
        15 15 9
        18 15 9
        21 15 9
        24 15 9
        27 15 9
        3.2236e-307 18 9
        3 18 9
        6 18 9
        9 18 9
        12 18 9
        15 18 9
        18 18 9
        21 18 9
        24 18 9
        27 18 9
        3.2236e-307 21 9
        3 21 9
        6 21 9
        9 21 9
        12 21 9
        15 21 9
        18 21 9
        21 21 9
        24 21 9
        27 21 9
        3.21174e-307 24 9
        3 24 9
        6 24 9
        9 24 9
        12 24 9
        15 24 9
        18 24 9
        21 24 9
        24 24 9
        27 24 9
        2.94951e-307 27 9
        3 27 9
        6 27 9
        9 27 9
        12 27 9
        15 27 9
        18 27 9
        21 27 9
        24 27 9
        27 27 9
        2.96023e-307 2.73821e-307 12
        3 2.98047e-307 12
        6 2.99362e-307 12
        9 2.98211e-307 12
        12 2.99339e-307 12
        15 2.98183e-307 12
        18 2.99327e-307 12
        21 2.99327e-307 12
        24 2.98183e-307 12
        27 2.73657e-307 12
        3.22213e-307 3 12
        3 3 12
        6 3 12
        9 3 12
        12 3 12
        15 3 12
        18 3 12
        21 3 12
        24 3 12
        27 3 12
        3.23634e-307 6 12
        3 6 12
        6 6 12
        9 6 12
        12 6 12
        15 6 12
        18 6 12
        21 6 12
        24 6 12
        27 6 12
        3.2239e-307 9 12
        3 9 12
        6 9 12
        9 9 12
        12 9 12
        15 9 12
        18 9 12
        21 9 12
        24 9 12
        27 9 12
        3.23609e-307 12 12
        3 12 12
        6 12 12
        9 12 12
        12 12 12
        15 12 12
        18 12 12
        21 12 12
        24 12 12
        27 12 12
        3.2236e-307 15 12
        3 15 12
        6 15 12
        9 15 12
        12 15 12
        15 15 12
        18 15 12
        21 15 12
        24 15 12
        27 15 12
        3.23597e-307 18 12
        3 18 12
        6 18 12
        9 18 12
        12 18 12
        15 18 12
        18 18 12
        21 18 12
        24 18 12
        27 18 12
        3.23597e-307 21 12
        3 21 12
        6 21 12
        9 21 12
        12 21 12
        15 21 12
        18 21 12
        21 21 12
        24 21 12
        27 21 12
        3.2236e-307 24 12
        3 24 12
        6 24 12
        9 24 12
        12 24 12
        15 24 12
        18 24 12
        21 24 12
        24 24 12
        27 24 12
        2.95846e-307 27 12
        3 27 12
        6 27 12
        9 27 12
        12 27 12
        15 27 12
        18 27 12
        21 27 12
        24 27 12
        27 27 12
        2.95109e-307 2.72976e-307 15
        3 2.9694e-307 15
        6 2.98183e-307 15
        9 2.97086e-307 15
        12 2.98183e-307 15
        15 2.97086e-307 15
        18 2.98183e-307 15
        21 2.98183e-307 15
        24 2.97086e-307 15
        27 2.7283e-307 15
        3.21016e-307 3 15
        3 3 15
        6 3 15
        9 3 15
        12 3 15
        15 3 15
        18 3 15
        21 3 15
        24 3 15
        27 3 15
        3.2236e-307 6 15
        3 6 15
        6 6 15
        9 6 15
        12 6 15
        15 6 15
        18 6 15
        21 6 15
        24 6 15
        27 6 15
        3.21174e-307 9 15
        3 9 15
        6 9 15
        9 9 15
        12 9 15
        15 9 15
        18 9 15
        21 9 15
        24 9 15
        27 9 15
        3.2236e-307 12 15
        3 12 15
        6 12 15
        9 12 15
        12 12 15
        15 12 15
        18 12 15
        21 12 15
        24 12 15
        27 12 15
        3.21174e-307 15 15
        3 15 15
        6 15 15
        9 15 15
        12 15 15
        15 15 15
        18 15 15
        21 15 15
        24 15 15
        27 15 15
        3.2236e-307 18 15
        3 18 15
        6 18 15
        9 18 15
        12 18 15
        15 18 15
        18 18 15
        21 18 15
        24 18 15
        27 18 15
        3.2236e-307 21 15
        3 21 15
        6 21 15
        9 21 15
        12 21 15
        15 21 15
        18 21 15
        21 21 15
        24 21 15
        27 21 15
        3.21174e-307 24 15
        3 24 15
        6 24 15
        9 24 15
        12 24 15
        15 24 15
        18 24 15
        21 24 15
        24 24 15
        27 24 15
        2.94951e-307 27 15
        3 27 15
        6 27 15
        9 27 15
        12 27 15
        15 27 15
        18 27 15
        21 27 15
        24 27 15
        27 27 15
        2.96015e-307 2.73814e-307 18
        3 2.98027e-307 18
        6 2.99327e-307 18
        9 2.98183e-307 18
        12 2.99327e-307 18
        15 2.98183e-307 18
        18 2.99327e-307 18
        21 2.99327e-307 18
        24 2.98183e-307 18
        27 2.73657e-307 18
        3.22191e-307 3 18
        3 3 18
        6 3 18
        9 3 18
        12 3 18
        15 3 18
        18 3 18
        21 3 18
        24 3 18
        27 3 18
        3.23597e-307 6 18
        3 6 18
        6 6 18
        9 6 18
        12 6 18
        15 6 18
        18 6 18
        21 6 18
        24 6 18
        27 6 18
        3.2236e-307 9 18
        3 9 18
        6 9 18
        9 9 18
        12 9 18
        15 9 18
        18 9 18
        21 9 18
        24 9 18
        27 9 18
        3.23597e-307 12 18
        3 12 18
        6 12 18
        9 12 18
        12 12 18
        15 12 18
        18 12 18
        21 12 18
        24 12 18
        27 12 18
        3.2236e-307 15 18
        3 15 18
        6 15 18
        9 15 18
        12 15 18
        15 15 18
        18 15 18
        21 15 18
        24 15 18
        27 15 18
        3.23597e-307 18 18
        3 18 18
        6 18 18
        9 18 18
        12 18 18
        15 18 18
        18 18 18
        21 18 18
        24 18 18
        27 18 18
        3.23597e-307 21 18
        3 21 18
        6 21 18
        9 21 18
        12 21 18
        15 21 18
        18 21 18
        21 21 18
        24 21 18
        27 21 18
        3.2236e-307 24 18
        3 24 18
        6 24 18
        9 24 18
        12 24 18
        15 24 18
        18 24 18
        21 24 18
        24 24 18
        27 24 18
        2.95846e-307 27 18
        3 27 18
        6 27 18
        9 27 18
        12 27 18
        15 27 18
        18 27 18
        21 27 18
        24 27 18
        27 27 18
        2.96015e-307 2.73814e-307 21
        3 2.98027e-307 21
        6 2.99327e-307 21
        9 2.98183e-307 21
        12 2.99327e-307 21
        15 2.98183e-307 21
        18 2.99327e-307 21
        21 2.99327e-307 21
        24 2.98183e-307 21
        27 2.73657e-307 21
        3.22191e-307 3 21
        3 3 21
        6 3 21
        9 3 21
        12 3 21
        15 3 21
        18 3 21
        21 3 21
        24 3 21
        27 3 21
        3.23597e-307 6 21
        3 6 21
        6 6 21
        9 6 21
        12 6 21
        15 6 21
        18 6 21
        21 6 21
        24 6 21
        27 6 21
        3.2236e-307 9 21
        3 9 21
        6 9 21
        9 9 21
        12 9 21
        15 9 21
        18 9 21
        21 9 21
        24 9 21
        27 9 21
        3.23597e-307 12 21
        3 12 21
        6 12 21
        9 12 21
        12 12 21
        15 12 21
        18 12 21
        21 12 21
        24 12 21
        27 12 21
        3.2236e-307 15 21
        3 15 21
        6 15 21
        9 15 21
        12 15 21
        15 15 21
        18 15 21
        21 15 21
        24 15 21
        27 15 21
        3.23597e-307 18 21
        3 18 21
        6 18 21
        9 18 21
        12 18 21
        15 18 21
        18 18 21
        21 18 21
        24 18 21
        27 18 21
        3.23597e-307 21 21
        3 21 21
        6 21 21
        9 21 21
        12 21 21
        15 21 21
        18 21 21
        21 21 21
        24 21 21
        27 21 21
        3.2236e-307 24 21
        3 24 21
        6 24 21
        9 24 21
        12 24 21
        15 24 21
        18 24 21
        21 24 21
        24 24 21
        27 24 21
        2.95846e-307 27 21
        3 27 21
        6 27 21
        9 27 21
        12 27 21
        15 27 21
        18 27 21
        21 27 21
        24 27 21
        27 27 21
        2.95109e-307 2.72976e-307 24
        3 2.9694e-307 24
        6 2.98183e-307 24
        9 2.97086e-307 24
        12 2.98183e-307 24
        15 2.97086e-307 24
        18 2.98183e-307 24
        21 2.98183e-307 24
        24 2.97086e-307 24
        27 2.7283e-307 24
        3.21016e-307 3 24
        3 3 24
        6 3 24
        9 3 24
        12 3 24
        15 3 24
        18 3 24
        21 3 24
        24 3 24
        27 3 24
        3.2236e-307 6 24
        3 6 24
        6 6 24
        9 6 24
        12 6 24
        15 6 24
        18 6 24
        21 6 24
        24 6 24
        27 6 24
        3.21174e-307 9 24
        3 9 24
        6 9 24
        9 9 24
        12 9 24
        15 9 24
        18 9 24
        21 9 24
        24 9 24
        27 9 24
        3.2236e-307 12 24
        3 12 24
        6 12 24
        9 12 24
        12 12 24
        15 12 24
        18 12 24
        21 12 24
        24 12 24
        27 12 24
        3.21174e-307 15 24
        3 15 24
        6 15 24
        9 15 24
        12 15 24
        15 15 24
        18 15 24
        21 15 24
        24 15 24
        27 15 24
        3.2236e-307 18 24
        3 18 24
        6 18 24
        9 18 24
        12 18 24
        15 18 24
        18 18 24
        21 18 24
        24 18 24
        27 18 24
        3.2236e-307 21 24
        3 21 24
        6 21 24
        9 21 24
        12 21 24
        15 21 24
        18 21 24
        21 21 24
        24 21 24
        27 21 24
        3.21174e-307 24 24
        3 24 24
        6 24 24
        9 24 24
        12 24 24
        15 24 24
        18 24 24
        21 24 24
        24 24 24
        27 24 24
        2.94951e-307 27 24
        3 27 24
        6 27 24
        9 27 24
        12 27 24
        15 27 24
        18 27 24
        21 27 24
        24 27 24
        27 27 24
        2.72814e-307 2.52353e-307 27
        3 2.72726e-307 27
        6 2.73657e-307 27
        9 2.7283e-307 27
        12 2.73657e-307 27
        15 2.7283e-307 27
        18 2.73657e-307 27
        21 2.73657e-307 27
        24 2.7283e-307 27
        27 2.52249e-307 27
        2.94839e-307 3 27
        3 3 27
        6 3 27
        9 3 27
        12 3 27
        15 3 27
        18 3 27
        21 3 27
        24 3 27
        27 3 27
        2.95846e-307 6 27
        3 6 27
        6 6 27
        9 6 27
        12 6 27
        15 6 27
        18 6 27
        21 6 27
        24 6 27
        27 6 27
        2.94951e-307 9 27
        3 9 27
        6 9 27
        9 9 27
        12 9 27
        15 9 27
        18 9 27
        21 9 27
        24 9 27
        27 9 27
        2.95846e-307 12 27
        3 12 27
        6 12 27
        9 12 27
        12 12 27
        15 12 27
        18 12 27
        21 12 27
        24 12 27
        27 12 27
        2.94951e-307 15 27
        3 15 27
        6 15 27
        9 15 27
        12 15 27
        15 15 27
        18 15 27
        21 15 27
        24 15 27
        27 15 27
        2.95846e-307 18 27
        3 18 27
        6 18 27
        9 18 27
        12 18 27
        15 18 27
        18 18 27
        21 18 27
        24 18 27
        27 18 27
        2.95846e-307 21 27
        3 21 27
        6 21 27
        9 21 27
        12 21 27
        15 21 27
        18 21 27
        21 21 27
        24 21 27
        27 21 27
        2.94951e-307 24 27
        3 24 27
        6 24 27
        9 24 27
        12 24 27
        15 24 27
        18 24 27
        21 24 27
        24 24 27
        27 24 27
        2.72701e-307 27 27
        3 27 27
        6 27 27
        9 27 27
        12 27 27
        15 27 27
        18 27 27
        21 27 27
        24 27 27
        27 27 27
      </DataArray>
    </Points>
    <Cells>
      <DataArray type="Int32" Name="connectivity" format="ascii"/>
      <DataArray type="Int32" Name="offsets" format="ascii"/>
      <DataArray type="UInt8" Name="types" format="ascii"/>
    </Cells>
  </Piece>
  </UnstructuredGrid>
</VTKFile>
